# data file for 2000 SiO2 precursors with porosity capabilities 
-4 97 xlo xhi
-4 97 ylo yhi
-4 97 zlo zhi

6600 atoms
0 bonds
0 angles
0 dihedrals

3 atom types
0 bond types
0 angle types
93 dihedral types

Masses

	1	28
	2	16
	3	12

Dihedral Coeffs

	1	opls	0.3750	-0.2000	0.6250	-0.1000
	2	opls	0.0179	-0.0075	0.0613	-0.0025
	3	opls	0.0169	-0.0034	0.0596	-0.0029
	4	opls	0.0061	-0.0064	0.0680	-0.0032
	5	opls	5.1866	-0.7573	0.1955	-0.0484
	6	opls	0.0576	-0.0276	0.2311	-0.0588
	7	opls	-0.0286	-0.0002	0.1981	0.0137
	8	opls	0.0956	-0.0347	0.1311	0.0000
	9	opls	0.1046	-0.0471	0.1689	-0.0028
	10	opls	0.0838	-0.0315	0.1378	0.0019
	11	opls	0.8070	-0.1106	0.3748	0.0532
	12	opls	-0.6350	0.6467	1.1307	0.3021
	13	opls	0.1107	-0.0504	0.1594	-0.0041
	14	opls	0.0906	-0.0352	0.1327	-0.0002
	15	class2	0.0035	180.0000	0.0027	180.0000	0.0293	0.0000
	16	class2	0.0000	0.0000	0.0107	180.0000	0.0000	0.0000
	17	class2	5.5263	0.0000	0.0530	-180.0000	-0.4549	0.0000
	18	class2	-0.1743	109.1530	0.3162	-21.2130	0.3766	175.7110
	19	class2	0.2604	171.4810	0.3939	21.0160	-0.3950	-2.2800
	20	class2	0.2017	161.8610	0.5048	-32.1150	-0.4248	-17.8790
	21	class2	-0.3007	39.6560	0.3059	58.2670	0.5730	136.8990
	22	opls	0.0865	-0.0347	0.1369	0.0009
	23	opls	0.0260	-0.0152	0.0313	-0.0022
	24	class2	-0.0021	180.0000	0.0068	-180.0000	0.0249	180.0000
	25	class2	4.5288	-0.6922	0.0593	51.2299	-0.2849	1.8864
	26	class2	4.7117	-0.4973	0.0435	52.0125	-0.2714	1.4150
	27	class2	0.8503	40.1737	-0.1729	13.8124	0.1254	35.6974
	28	class2	0.7650	125.8283	0.2084	70.9850	-0.2223	53.7952
	29	class2	2.3416	-0.3794	-1.0343	-7.6031	0.2588	28.8160
	30	class2	0.2934	193.2417	0.5263	-11.9147	0.5367	3.4434
	31	class2	-0.3151	71.1896	0.7877	71.3081	0.3381	77.8020
	32	class2	0.3951	169.0500	0.5022	178.8020	0.0764	-5.1270
	33	class2	10.3083	0.4429	-1.4613	3.3498	-0.1841	-12.1460
	34	class2	-0.4315	-364.9834	0.9677	2.8426	0.4723	3.5497
	35	class2	6.2855	-2.0981	0.2675	-15.2695	-0.4898	-10.1079
	36	class2	4.9462	179.8800	-1.0263	-0.8136	-0.0716	-7.8033
	37	class2	2.6998	-179.9669	-0.4484	0.7193	0.0104	-0.6393
	38	class2	1.8296	0.0001	-0.4451	-719.9997	0.1002	360.0002
	39	class2	0.0080	-180.3242	3.2482	0.0006	-1.0463	0.0008
	40	class2	2.8410	-179.3710	-0.5109	5.3337	0.0303	-113.8039
	41	class2	7.6688	0.0005	-0.5919	0.0007	-0.0862	0.0020
	42	class2	6.3460	-0.3509	0.2224	10.0512	-0.3425	2.4027
	43	class2	5.0792	180.1606	-1.0138	1.1164	-0.0723	9.8006
	44	class2	-0.4257	-358.8127	0.8587	-0.6041	0.4727	-1.6051
	45	class2	-0.4508	-360.0038	0.9913	0.0015	0.5017	0.0020
	46	class2	-0.4919	-359.9981	1.0041	-0.0026	0.5645	-0.0034
	47	class2	1.7647	-20.8475	0.0678	159.1707	-0.1965	-45.8413
	48	class2	3.0848	-3.8071	1.7944	6.9829	-0.7375	7.1513
	49	class2	7.6697	-2.5235	0.0050	132.1655	-0.4974	-7.1371
	50	class2	-0.3693	19.0216	0.9139	-20.9413	0.3698	-28.5713
	51	class2	6.2877	0.0002	0.0062	179.7813	-0.2226	0.0006
	52	class2	-0.5075	-359.9967	1.0392	-0.0032	0.5761	-0.0030
	53	class2	5.6305	0.3752	0.4331	-365.9955	-0.3846	-3.0171
	54	class2	-0.5053	4.4285	1.0130	-3.1775	0.5782	-4.2238
	55	class2	7.9597	-0.2710	0.0333	89.8772	-0.4914	0.9408
	56	class2	3.8790	-184.2933	-1.2072	-17.2079	0.3490	147.2990
	57	class2	-0.4182	-364.9790	0.8808	2.9750	0.4528	3.8338
	58	class2	2.0839	-180.4693	-0.1593	-9.3972	0.0180	47.0579
	59	class2	1.7381	0.1429	-0.4096	-358.8383	0.0660	8.7887
	60	class2	6.7533	-2.0243	-1.9530	-1.4807	0.0580	99.7790
	61	class2	-0.9140	202.9373	1.2977	-32.1869	0.8765	155.8002
	62	class2	1.8710	223.1544	-0.3706	87.9349	-0.0495	365.1257
	63	class2	3.0707	-1.2185	0.2774	65.9386	-0.7059	15.0545
	64	class2	2.9283	-15.0151	-1.1277	276.2944	0.6598	228.3612
	65	class2	1.8307	-222.5725	-0.4268	-90.0072	0.0828	-558.4135
	66	class2	9.5372	0.9773	-3.5352	2.9422	0.4581	370.8671
	67	class2	1.9510	-131.6122	-0.5165	90.0285	-0.0456	-337.9184
	68	class2	1.8938	582.4854	-0.4080	76.6182	-0.0919	713.9953
	69	class2	1.9140	-942.6125	-0.4268	-77.9410	-0.0803	4.4302
	70	class2	1.9279	-227.9388	-0.5723	-87.6316	0.0604	500.6796
	71	class2	1.5133	0.2833	-0.5533	1.0617	0.0803	4.7019
	72	class2	2.4022	-179.9998	-0.2712	-0.0017	-0.0121	-0.0682
	73	class2	2.2298	-180.4677	-0.1342	-15.8914	0.0309	37.6600
	74	class2	2.2890	0.0000	-0.4075	0.0008	0.0863	0.0157
	75	class2	8.5169	0.0003	-1.9922	0.0002	0.2309	-0.0030
	76	class2	3.6060	180.0178	-0.4492	0.2302	-0.0193	2.4646
	77	class2	5.9686	0.0005	-0.9737	0.0009	0.0460	-0.0033
	78	class2	9.0287	0.0003	-2.3777	0.0007	0.3567	360.0008
	79	class2	3.6724	179.7356	-0.5816	-2.9735	0.1224	163.9270
	80	class2	5.7865	0.0004	-0.9491	0.0009	0.0727	360.0006
	81	class2	8.9280	0.0005	-2.2503	0.0009	0.3143	0.0009
	82	class2	4.4731	180.1046	0.6418	180.9413	-0.7977	3.9569
	83	class2	3.1704	179.5199	0.1469	-190.0902	-0.2442	209.1656
	84	class2	3.6009	-178.5417	-0.7071	12.6466	0.2241	-142.7069
	85	class2	2.4979	-179.8091	-0.2606	3.0417	-0.0092	51.9182
	86	class2	6.3427	0.0005	-0.8170	0.0013	-0.0580	-0.0059
	87	class2	2.5345	-180.0001	-0.2828	-0.0009	-0.0147	-0.0958
	88	class2	6.2688	0.0003	-0.8322	-0.0001	-0.0521	0.0055
	89	class2	6.7857	0.2910	-0.9941	1.7588	0.0057	127.6178
	90	opls	0.0577	0.0047	0.0576	-0.0524
	91	class2	3.2021	-179.8357	-0.2798	8.8830	0.0369	-89.1100
	92	opls	0.0576	0.0022	0.0563	-0.0486
	93	class2	3.1576	-180.3262	-0.2700	-1.2677	0.0057	52.3925

MiddleBondTorsion Coeffs

	1	opls
	2	opls
	3	opls
	4	opls
	5	opls
	6	opls
	7	opls
	8	opls
	9	opls
	10	opls
	11	opls
	12	opls
	13	opls
	14	opls
	15	class2	0	0	0	0
	16	class2	0	0	0	0
	17	class2	0	0	0	0
	18	class2	0	0	0	0
	19	class2	0	0	0	0
	20	class2	0	0	0	0
	21	class2	0	0	0	0
	22	opls
	23	opls
	24	class2	0	0	0	0
	25	class2	0	0	0	0
	26	class2	0	0	0	0
	27	class2	0	0	0	0
	28	class2	0	0	0	0
	29	class2	0	0	0	0
	30	class2	0	0	0	0
	31	class2	0	0	0	0
	32	class2	0	0	0	0
	33	class2	0	0	0	0
	34	class2	0	0	0	0
	35	class2	0	0	0	0
	36	class2	0	0	0	0
	37	class2	0	0	0	0
	38	class2	0	0	0	0
	39	class2	0	0	0	0
	40	class2	0	0	0	0
	41	class2	0	0	0	0
	42	class2	0	0	0	0
	43	class2	0	0	0	0
	44	class2	0	0	0	0
	45	class2	0	0	0	0
	46	class2	0	0	0	0
	47	class2	0	0	0	0
	48	class2	0	0	0	0
	49	class2	0	0	0	0
	50	class2	0	0	0	0
	51	class2	0	0	0	0
	52	class2	0	0	0	0
	53	class2	0	0	0	0
	54	class2	0	0	0	0
	55	class2	0	0	0	0
	56	class2	0	0	0	0
	57	class2	0	0	0	0
	58	class2	0	0	0	0
	59	class2	0	0	0	0
	60	class2	0	0	0	0
	61	class2	0	0	0	0
	62	class2	0	0	0	0
	63	class2	0	0	0	0
	64	class2	0	0	0	0
	65	class2	0	0	0	0
	66	class2	0	0	0	0
	67	class2	0	0	0	0
	68	class2	0	0	0	0
	69	class2	0	0	0	0
	70	class2	0	0	0	0
	71	class2	0	0	0	0
	72	class2	0	0	0	0
	73	class2	0	0	0	0
	74	class2	0	0	0	0
	75	class2	0	0	0	0
	76	class2	0	0	0	0
	77	class2	0	0	0	0
	78	class2	0	0	0	0
	79	class2	0	0	0	0
	80	class2	0	0	0	0
	81	class2	0	0	0	0
	82	class2	0	0	0	0
	83	class2	0	0	0	0
	84	class2	0	0	0	0
	85	class2	0	0	0	0
	86	class2	0	0	0	0
	87	class2	0	0	0	0
	88	class2	0	0	0	0
	89	class2	0	0	0	0
	90	opls
	91	class2	0	0	0	0
	92	opls
	93	class2	0	0	0	0

EndBondTorsion Coeffs

	1	opls
	2	opls
	3	opls
	4	opls
	5	opls
	6	opls
	7	opls
	8	opls
	9	opls
	10	opls
	11	opls
	12	opls
	13	opls
	14	opls
	15	class2	0	0	0	0	0	0	0	0
	16	class2	0	0	0	0	0	0	0	0
	17	class2	0	0	0	0	0	0	0	0
	18	class2	0	0	0	0	0	0	0	0
	19	class2	0	0	0	0	0	0	0	0
	20	class2	0	0	0	0	0	0	0	0
	21	class2	0	0	0	0	0	0	0	0
	22	opls
	23	opls
	24	class2	0	0	0	0	0	0	0	0
	25	class2	0	0	0	0	0	0	0	0
	26	class2	0	0	0	0	0	0	0	0
	27	class2	0	0	0	0	0	0	0	0
	28	class2	0	0	0	0	0	0	0	0
	29	class2	0	0	0	0	0	0	0	0
	30	class2	0	0	0	0	0	0	0	0
	31	class2	0	0	0	0	0	0	0	0
	32	class2	0	0	0	0	0	0	0	0
	33	class2	0	0	0	0	0	0	0	0
	34	class2	0	0	0	0	0	0	0	0
	35	class2	0	0	0	0	0	0	0	0
	36	class2	0	0	0	0	0	0	0	0
	37	class2	0	0	0	0	0	0	0	0
	38	class2	0	0	0	0	0	0	0	0
	39	class2	0	0	0	0	0	0	0	0
	40	class2	0	0	0	0	0	0	0	0
	41	class2	0	0	0	0	0	0	0	0
	42	class2	0	0	0	0	0	0	0	0
	43	class2	0	0	0	0	0	0	0	0
	44	class2	0	0	0	0	0	0	0	0
	45	class2	0	0	0	0	0	0	0	0
	46	class2	0	0	0	0	0	0	0	0
	47	class2	0	0	0	0	0	0	0	0
	48	class2	0	0	0	0	0	0	0	0
	49	class2	0	0	0	0	0	0	0	0
	50	class2	0	0	0	0	0	0	0	0
	51	class2	0	0	0	0	0	0	0	0
	52	class2	0	0	0	0	0	0	0	0
	53	class2	0	0	0	0	0	0	0	0
	54	class2	0	0	0	0	0	0	0	0
	55	class2	0	0	0	0	0	0	0	0
	56	class2	0	0	0	0	0	0	0	0
	57	class2	0	0	0	0	0	0	0	0
	58	class2	0	0	0	0	0	0	0	0
	59	class2	0	0	0	0	0	0	0	0
	60	class2	0	0	0	0	0	0	0	0
	61	class2	0	0	0	0	0	0	0	0
	62	class2	0	0	0	0	0	0	0	0
	63	class2	0	0	0	0	0	0	0	0
	64	class2	0	0	0	0	0	0	0	0
	65	class2	0	0	0	0	0	0	0	0
	66	class2	0	0	0	0	0	0	0	0
	67	class2	0	0	0	0	0	0	0	0
	68	class2	0	0	0	0	0	0	0	0
	69	class2	0	0	0	0	0	0	0	0
	70	class2	0	0	0	0	0	0	0	0
	71	class2	0	0	0	0	0	0	0	0
	72	class2	0	0	0	0	0	0	0	0
	73	class2	0	0	0	0	0	0	0	0
	74	class2	0	0	0	0	0	0	0	0
	75	class2	0	0	0	0	0	0	0	0
	76	class2	0	0	0	0	0	0	0	0
	77	class2	0	0	0	0	0	0	0	0
	78	class2	0	0	0	0	0	0	0	0
	79	class2	0	0	0	0	0	0	0	0
	80	class2	0	0	0	0	0	0	0	0
	81	class2	0	0	0	0	0	0	0	0
	82	class2	0	0	0	0	0	0	0	0
	83	class2	0	0	0	0	0	0	0	0
	84	class2	0	0	0	0	0	0	0	0
	85	class2	0	0	0	0	0	0	0	0
	86	class2	0	0	0	0	0	0	0	0
	87	class2	0	0	0	0	0	0	0	0
	88	class2	0	0	0	0	0	0	0	0
	89	class2	0	0	0	0	0	0	0	0
	90	opls
	91	class2	0	0	0	0	0	0	0	0
	92	opls
	93	class2	0	0	0	0	0	0	0	0

AngleTorsion Coeffs

	1	opls
	2	opls
	3	opls
	4	opls
	5	opls
	6	opls
	7	opls
	8	opls
	9	opls
	10	opls
	11	opls
	12	opls
	13	opls
	14	opls
	15	class2	0	0	0	0	0	0	0	0
	16	class2	0	0	0	0	0	0	0	0
	17	class2	0	0	0	0	0	0	0	0
	18	class2	0	0	0	0	0	0	0	0
	19	class2	0	0	0	0	0	0	0	0
	20	class2	0	0	0	0	0	0	0	0
	21	class2	0	0	0	0	0	0	0	0
	22	opls
	23	opls
	24	class2	0	0	0	0	0	0	0	0
	25	class2	0	0	0	0	0	0	0	0
	26	class2	0	0	0	0	0	0	0	0
	27	class2	0	0	0	0	0	0	0	0
	28	class2	0	0	0	0	0	0	0	0
	29	class2	0	0	0	0	0	0	0	0
	30	class2	0	0	0	0	0	0	0	0
	31	class2	0	0	0	0	0	0	0	0
	32	class2	0	0	0	0	0	0	0	0
	33	class2	0	0	0	0	0	0	0	0
	34	class2	0	0	0	0	0	0	0	0
	35	class2	0	0	0	0	0	0	0	0
	36	class2	0	0	0	0	0	0	0	0
	37	class2	0	0	0	0	0	0	0	0
	38	class2	0	0	0	0	0	0	0	0
	39	class2	0	0	0	0	0	0	0	0
	40	class2	0	0	0	0	0	0	0	0
	41	class2	0	0	0	0	0	0	0	0
	42	class2	0	0	0	0	0	0	0	0
	43	class2	0	0	0	0	0	0	0	0
	44	class2	0	0	0	0	0	0	0	0
	45	class2	0	0	0	0	0	0	0	0
	46	class2	0	0	0	0	0	0	0	0
	47	class2	0	0	0	0	0	0	0	0
	48	class2	0	0	0	0	0	0	0	0
	49	class2	0	0	0	0	0	0	0	0
	50	class2	0	0	0	0	0	0	0	0
	51	class2	0	0	0	0	0	0	0	0
	52	class2	0	0	0	0	0	0	0	0
	53	class2	0	0	0	0	0	0	0	0
	54	class2	0	0	0	0	0	0	0	0
	55	class2	0	0	0	0	0	0	0	0
	56	class2	0	0	0	0	0	0	0	0
	57	class2	0	0	0	0	0	0	0	0
	58	class2	0	0	0	0	0	0	0	0
	59	class2	0	0	0	0	0	0	0	0
	60	class2	0	0	0	0	0	0	0	0
	61	class2	0	0	0	0	0	0	0	0
	62	class2	0	0	0	0	0	0	0	0
	63	class2	0	0	0	0	0	0	0	0
	64	class2	0	0	0	0	0	0	0	0
	65	class2	0	0	0	0	0	0	0	0
	66	class2	0	0	0	0	0	0	0	0
	67	class2	0	0	0	0	0	0	0	0
	68	class2	0	0	0	0	0	0	0	0
	69	class2	0	0	0	0	0	0	0	0
	70	class2	0	0	0	0	0	0	0	0
	71	class2	0	0	0	0	0	0	0	0
	72	class2	0	0	0	0	0	0	0	0
	73	class2	0	0	0	0	0	0	0	0
	74	class2	0	0	0	0	0	0	0	0
	75	class2	0	0	0	0	0	0	0	0
	76	class2	0	0	0	0	0	0	0	0
	77	class2	0	0	0	0	0	0	0	0
	78	class2	0	0	0	0	0	0	0	0
	79	class2	0	0	0	0	0	0	0	0
	80	class2	0	0	0	0	0	0	0	0
	81	class2	0	0	0	0	0	0	0	0
	82	class2	0	0	0	0	0	0	0	0
	83	class2	0	0	0	0	0	0	0	0
	84	class2	0	0	0	0	0	0	0	0
	85	class2	0	0	0	0	0	0	0	0
	86	class2	0	0	0	0	0	0	0	0
	87	class2	0	0	0	0	0	0	0	0
	88	class2	0	0	0	0	0	0	0	0
	89	class2	0	0	0	0	0	0	0	0
	90	opls
	91	class2	0	0	0	0	0	0	0	0
	92	opls
	93	class2	0	0	0	0	0	0	0	0

AngleAngleTorsion Coeffs

	1	opls
	2	opls
	3	opls
	4	opls
	5	opls
	6	opls
	7	opls
	8	opls
	9	opls
	10	opls
	11	opls
	12	opls
	13	opls
	14	opls
	15	class2	0	0	0
	16	class2	0	0	0
	17	class2	0	0	0
	18	class2	0	0	0
	19	class2	0	0	0
	20	class2	0	0	0
	21	class2	0	0	0
	22	opls
	23	opls
	24	class2	0	0	0
	25	class2	0	0	0
	26	class2	0	0	0
	27	class2	0	0	0
	28	class2	0	0	0
	29	class2	0	0	0
	30	class2	0	0	0
	31	class2	0	0	0
	32	class2	0	0	0
	33	class2	0	0	0
	34	class2	0	0	0
	35	class2	0	0	0
	36	class2	0	0	0
	37	class2	0	0	0
	38	class2	0	0	0
	39	class2	0	0	0
	40	class2	0	0	0
	41	class2	0	0	0
	42	class2	0	0	0
	43	class2	0	0	0
	44	class2	0	0	0
	45	class2	0	0	0
	46	class2	0	0	0
	47	class2	0	0	0
	48	class2	0	0	0
	49	class2	0	0	0
	50	class2	0	0	0
	51	class2	0	0	0
	52	class2	0	0	0
	53	class2	0	0	0
	54	class2	0	0	0
	55	class2	0	0	0
	56	class2	0	0	0
	57	class2	0	0	0
	58	class2	0	0	0
	59	class2	0	0	0
	60	class2	0	0	0
	61	class2	0	0	0
	62	class2	0	0	0
	63	class2	0	0	0
	64	class2	0	0	0
	65	class2	0	0	0
	66	class2	0	0	0
	67	class2	0	0	0
	68	class2	0	0	0
	69	class2	0	0	0
	70	class2	0	0	0
	71	class2	0	0	0
	72	class2	0	0	0
	73	class2	0	0	0
	74	class2	0	0	0
	75	class2	0	0	0
	76	class2	0	0	0
	77	class2	0	0	0
	78	class2	0	0	0
	79	class2	0	0	0
	80	class2	0	0	0
	81	class2	0	0	0
	82	class2	0	0	0
	83	class2	0	0	0
	84	class2	0	0	0
	85	class2	0	0	0
	86	class2	0	0	0
	87	class2	0	0	0
	88	class2	0	0	0
	89	class2	0	0	0
	90	opls
	91	class2	0	0	0
	92	opls
	93	class2	0	0	0

BondBond13 Coeffs

	1	opls
	2	opls
	3	opls
	4	opls
	5	opls
	6	opls
	7	opls
	8	opls
	9	opls
	10	opls
	11	opls
	12	opls
	13	opls
	14	opls
	15	class2	0	0	0
	16	class2	0	0	0
	17	class2	0	0	0
	18	class2	0	0	0
	19	class2	0	0	0
	20	class2	0	0	0
	21	class2	0	0	0
	22	opls
	23	opls
	24	class2	0	0	0
	25	class2	0	0	0
	26	class2	0	0	0
	27	class2	0	0	0
	28	class2	0	0	0
	29	class2	0	0	0
	30	class2	0	0	0
	31	class2	0	0	0
	32	class2	0	0	0
	33	class2	0	0	0
	34	class2	0	0	0
	35	class2	0	0	0
	36	class2	0	0	0
	37	class2	0	0	0
	38	class2	0	0	0
	39	class2	0	0	0
	40	class2	0	0	0
	41	class2	0	0	0
	42	class2	0	0	0
	43	class2	0	0	0
	44	class2	0	0	0
	45	class2	0	0	0
	46	class2	0	0	0
	47	class2	0	0	0
	48	class2	0	0	0
	49	class2	0	0	0
	50	class2	0	0	0
	51	class2	0	0	0
	52	class2	0	0	0
	53	class2	0	0	0
	54	class2	0	0	0
	55	class2	0	0	0
	56	class2	0	0	0
	57	class2	0	0	0
	58	class2	0	0	0
	59	class2	0	0	0
	60	class2	0	0	0
	61	class2	0	0	0
	62	class2	0	0	0
	63	class2	0	0	0
	64	class2	0	0	0
	65	class2	0	0	0
	66	class2	0	0	0
	67	class2	0	0	0
	68	class2	0	0	0
	69	class2	0	0	0
	70	class2	0	0	0
	71	class2	0	0	0
	72	class2	0	0	0
	73	class2	0	0	0
	74	class2	0	0	0
	75	class2	0	0	0
	76	class2	0	0	0
	77	class2	0	0	0
	78	class2	0	0	0
	79	class2	0	0	0
	80	class2	0	0	0
	81	class2	0	0	0
	82	class2	0	0	0
	83	class2	0	0	0
	84	class2	0	0	0
	85	class2	0	0	0
	86	class2	0	0	0
	87	class2	0	0	0
	88	class2	0	0	0
	89	class2	0	0	0
	90	opls
	91	class2	0	0	0
	92	opls
	93	class2	0	0	0

Atoms

1	1	1	4	26.5426	70.0016	17.7236
2	2	1	4	9.3891	21.2578	58.0099
3	3	1	4	84.2834	56.6736	83.6900
4	4	1	4	66.8234	90.3912	22.8667
5	5	1	4	76.6316	14.1619	76.1060
6	6	1	4	49.2767	84.9444	77.9161
7	7	1	4	61.3955	66.8492	49.1994
8	8	1	4	33.7688	83.5582	66.9723
9	9	1	4	48.2823	29.8261	36.0717
10	10	1	4	9.3069	15.0960	17.6914
11	11	1	4	16.0945	26.6942	75.0291
12	12	1	4	87.7634	23.1306	49.7479
13	13	1	4	80.2843	33.0933	31.0111
14	14	1	4	5.7095	5.3560	8.7792
15	15	1	4	47.0736	84.2769	7.5896
16	16	1	4	12.8528	64.4174	34.6269
17	17	1	4	29.0566	80.1852	14.7263
18	18	1	4	60.1375	43.5495	49.6618
19	19	1	4	18.1242	67.5153	66.4032
20	20	1	4	59.6236	25.9121	48.0024
21	21	1	4	62.0035	73.2834	78.5729
22	22	1	4	9.2470	17.9989	1.7377
23	23	1	4	73.2421	30.9494	38.2201
24	24	1	4	64.9848	65.9153	14.6527
25	25	1	4	7.5009	62.0730	76.2085
26	26	1	4	69.1663	80.6462	43.7024
27	27	1	4	91.4964	83.4395	66.0418
28	28	1	4	59.3582	12.3994	1.2193
29	29	1	4	10.1084	54.6436	64.2258
30	30	1	4	86.9610	40.7648	79.4150
31	31	1	4	64.7375	13.3601	40.9704
32	32	1	4	86.4844	85.4218	15.6646
33	33	1	4	82.4958	9.6388	47.2260
34	34	1	4	6.5853	83.2102	9.0930
35	35	1	4	6.2747	63.7822	28.4105
36	36	1	4	23.6077	83.4482	24.0245
37	37	1	4	74.6688	18.3824	82.8720
38	38	1	4	10.7698	22.9856	74.4509
39	39	1	4	75.6035	35.2187	8.4089
40	40	1	4	89.8608	66.2788	64.0607
41	41	1	4	76.7532	88.1814	87.8335
42	42	1	4	70.3533	80.7240	88.2992
43	43	1	4	11.4104	64.9067	5.1234
44	44	1	4	79.9259	51.2325	15.0383
45	45	1	4	19.6775	83.2006	24.0401
46	46	1	4	2.5360	36.1086	65.1984
47	47	1	4	44.2679	81.6820	35.8538
48	48	1	4	84.9849	91.6323	61.4772
49	49	1	4	29.0869	24.8860	5.6033
50	50	1	4	35.4916	8.1807	80.3215
51	51	1	4	53.8301	92.3340	87.1623
52	52	1	4	25.5497	59.1097	70.8468
53	53	1	4	78.5894	10.5865	60.8815
54	54	1	4	57.3543	86.7394	69.8705
55	55	1	4	52.2965	80.1782	90.6995
56	56	1	4	51.6092	13.2873	82.7408
57	57	1	4	90.9172	64.1955	3.0315
58	58	1	4	5.4349	30.3042	79.3091
59	59	1	4	67.1577	28.8574	56.0312
60	60	1	4	49.9407	52.2246	66.2385
61	61	1	4	82.8854	12.9657	70.4925
62	62	1	4	90.3779	9.5586	45.9374
63	63	1	4	9.5207	61.7250	30.1717
64	64	1	4	86.8366	29.8611	6.5872
65	65	1	4	53.1314	34.8300	72.6561
66	66	1	4	84.5514	12.5867	57.1961
67	67	1	4	83.9725	41.7006	72.1110
68	68	1	4	52.1064	88.5155	74.6134
69	69	1	4	69.9609	83.5036	46.8988
70	70	1	4	50.5060	10.1814	74.3756
71	71	1	4	78.9552	27.8943	63.9064
72	72	1	4	64.6157	64.0218	25.4045
73	73	1	4	24.6450	4.4944	75.5716
74	74	1	4	79.4006	35.2413	2.2011
75	75	1	4	85.7764	8.9013	20.7883
76	76	1	4	75.7030	5.2292	81.9415
77	77	1	4	5.1661	31.0753	6.2027
78	78	1	4	85.3060	40.1232	75.6066
79	79	1	4	90.0409	45.1594	10.5636
80	80	1	4	17.7618	53.8725	72.0748
81	81	1	4	13.7125	71.0705	33.8763
82	82	1	4	89.6405	78.6081	63.0201
83	83	1	4	12.5737	15.1950	43.5557
84	84	1	4	64.1961	4.5370	6.8524
85	85	1	4	59.3833	1.5209	49.1600
86	86	1	4	15.9463	85.3894	41.4744
87	87	1	4	78.3243	25.1936	34.0749
88	88	1	4	46.9673	31.7728	21.2811
89	89	1	4	47.1113	74.3772	80.7582
90	90	1	4	46.1489	27.2933	54.1285
91	91	1	4	33.7529	33.2745	29.2814
92	92	1	4	6.8415	88.8668	29.3093
93	93	1	4	52.6170	87.1771	27.7689
94	94	1	4	64.1272	19.4534	37.7417
95	95	1	4	58.6987	60.4447	38.9903
96	96	1	4	43.0210	62.5820	79.4836
97	97	1	4	28.4861	92.5344	24.1862
98	98	1	4	10.6848	55.9532	46.9660
99	99	1	4	16.1750	60.9844	82.7655
100	100	1	4	43.7163	35.8247	65.0859
101	101	1	4	20.6923	88.9223	9.0101
102	102	1	4	9.4543	60.3068	56.0928
103	103	1	4	64.1618	15.2991	85.8585
104	104	1	4	76.9771	0.6115	1.1660
105	105	1	4	59.6793	71.1268	9.4961
106	106	1	4	18.0839	43.2749	8.3403
107	107	1	4	82.5517	38.6451	34.4990
108	108	1	4	68.3569	77.2576	30.5706
109	109	1	4	76.4686	25.0329	61.0576
110	110	1	4	24.3904	78.5524	59.5706
111	111	1	4	74.8792	67.6200	79.4848
112	112	1	4	82.6802	90.2678	7.6628
113	113	1	4	10.8981	31.9020	46.8606
114	114	1	4	32.4879	81.6541	62.9436
115	115	1	4	31.8393	59.7117	84.1224
116	116	1	4	77.0170	84.8164	29.2063
117	117	1	4	16.2280	1.6332	67.5244
118	118	1	4	63.8874	27.3337	84.5375
119	119	1	4	43.2626	28.9886	80.1698
120	120	1	4	55.4448	64.7686	38.2387
121	121	1	4	80.6510	71.0914	11.4015
122	122	1	4	62.6207	72.9819	79.0355
123	123	1	4	58.7717	29.1845	2.2442
124	124	1	4	38.9283	81.2178	88.8019
125	125	1	4	6.0610	27.6860	6.2881
126	126	1	4	53.7359	91.7739	73.8357
127	127	1	4	2.2721	61.3853	33.5284
128	128	1	4	4.0456	15.4511	6.3664
129	129	1	4	32.5554	56.0423	85.7157
130	130	1	4	48.4829	33.1390	26.5283
131	131	1	4	40.1948	81.7952	42.8625
132	132	1	4	67.0873	5.6423	11.9118
133	133	1	4	20.9949	73.6985	67.1199
134	134	1	4	0.4921	81.6043	88.5716
135	135	1	4	71.0102	57.7495	65.1425
136	136	1	4	40.5685	36.2476	24.5343
137	137	1	4	31.6674	63.8673	51.1603
138	138	1	4	40.0577	61.3039	9.4458
139	139	1	4	3.5152	12.3986	16.6705
140	140	1	4	9.5607	74.0991	90.0182
141	141	1	4	40.9173	80.0275	61.8149
142	142	1	4	65.1342	16.4876	43.8394
143	143	1	4	56.3143	3.4327	53.0614
144	144	1	4	87.4649	90.0720	73.2289
145	145	1	4	1.7219	60.2857	23.4492
146	146	1	4	46.4625	52.4571	85.2430
147	147	1	4	31.3646	60.0835	68.4213
148	148	1	4	22.6226	71.8311	75.4349
149	149	1	4	23.3068	56.0414	50.5396
150	150	1	4	56.0995	15.3098	26.5177
151	151	1	4	61.3324	38.7430	11.8196
152	152	1	4	49.9853	55.7168	57.4834
153	153	1	4	45.0511	46.7269	91.8360
154	154	1	4	50.1591	58.9148	49.7051
155	155	1	4	24.7488	53.2865	33.5334
156	156	1	4	75.4723	2.2725	29.6331
157	157	1	4	91.8613	7.9547	58.4941
158	158	1	4	63.4612	15.5667	1.0577
159	159	1	4	67.5156	66.7485	0.6793
160	160	1	4	83.0867	0.8035	26.2848
161	161	1	4	5.0036	83.8113	48.2420
162	162	1	4	39.5288	80.3645	6.9765
163	163	1	4	53.9780	3.0221	42.8434
164	164	1	4	74.4750	2.7495	80.3844
165	165	1	4	59.2245	61.3576	14.7606
166	166	1	4	50.4653	31.8258	28.4325
167	167	1	4	60.6292	91.9613	30.8020
168	168	1	4	9.4143	33.8637	5.8207
169	169	1	4	33.5260	2.3558	83.4344
170	170	1	4	75.8553	50.7348	84.8281
171	171	1	4	34.6445	50.2268	73.7985
172	172	1	4	46.9699	60.5037	32.2658
173	173	1	4	67.8601	10.7732	61.5548
174	174	1	4	89.9945	82.6382	5.1632
175	175	1	4	0.9814	22.3353	30.9454
176	176	1	4	50.1107	73.7914	86.4947
177	177	1	4	76.1549	82.3184	50.7875
178	178	1	4	41.3369	43.0394	71.1774
179	179	1	4	50.9668	11.6938	59.3976
180	180	1	4	26.7572	45.9175	51.3369
181	181	1	4	0.8577	32.4265	61.5918
182	182	1	4	40.5307	1.9892	60.1559
183	183	1	4	9.5163	12.5479	77.8817
184	184	1	4	22.1559	74.3714	67.5795
185	185	1	4	46.7889	90.0667	89.5349
186	186	1	4	39.7615	18.8283	67.0557
187	187	1	4	35.3641	14.6056	3.5310
188	188	1	4	59.7096	48.7152	28.7351
189	189	1	4	90.1846	78.6740	7.1329
190	190	1	4	90.4510	35.7443	38.7509
191	191	1	4	19.9743	27.3682	29.4231
192	192	1	4	81.7387	24.9480	8.7242
193	193	1	4	38.4831	79.5064	28.8046
194	194	1	4	61.8937	65.9345	14.8423
195	195	1	4	68.4453	35.2898	3.7786
196	196	1	4	7.5401	10.0784	5.5076
197	197	1	4	42.1213	20.6861	5.6951
198	198	1	4	65.8781	55.9672	40.7084
199	199	1	4	39.7918	20.2433	4.8879
200	200	1	4	56.2422	14.0664	20.0006
201	201	1	4	11.4489	6.9145	83.8609
202	202	1	4	71.5584	67.3583	37.8511
203	203	1	4	61.5304	91.1149	46.0823
204	204	1	4	51.2367	63.5226	16.5887
205	205	1	4	48.6627	57.7237	66.8159
206	206	1	4	91.3110	41.6274	81.0844
207	207	1	4	60.8004	27.8084	44.0772
208	208	1	4	27.0118	27.1381	53.7663
209	209	1	4	64.2887	91.6759	47.5037
210	210	1	4	10.4799	60.4005	12.2899
211	211	1	4	65.2775	84.3624	89.3205
212	212	1	4	14.4827	20.4388	45.1061
213	213	1	4	21.3271	65.7200	31.2786
214	214	1	4	29.0127	9.8867	35.9830
215	215	1	4	7.9603	87.3555	52.3254
216	216	1	4	36.7314	24.2955	74.2732
217	217	1	4	23.1315	46.0252	64.4568
218	218	1	4	27.6020	10.2770	25.1953
219	219	1	4	15.4153	68.9329	14.9193
220	220	1	4	89.0935	49.1642	91.5143
221	221	1	4	68.8061	5.9849	17.1639
222	222	1	4	31.5291	3.7200	84.8823
223	223	1	4	25.3347	55.6453	33.9827
224	224	1	4	72.1401	50.0557	17.7784
225	225	1	4	28.2733	43.9668	0.0887
226	226	1	4	56.0004	35.4237	62.4414
227	227	1	4	80.0235	33.6771	75.8670
228	228	1	4	75.5976	68.6332	79.4182
229	229	1	4	62.6951	32.7750	48.4213
230	230	1	4	39.3184	83.3348	77.1943
231	231	1	4	71.2296	33.5372	1.0875
232	232	1	4	41.3149	67.7095	81.1663
233	233	1	4	75.3078	15.0439	85.8917
234	234	1	4	74.4406	42.9504	37.8544
235	235	1	4	47.6382	40.8069	63.4426
236	236	1	4	43.3391	4.0499	13.4808
237	237	1	4	71.8373	60.0029	84.8564
238	238	1	4	65.1948	74.9812	55.5098
239	239	1	4	48.9646	10.2182	42.6723
240	240	1	4	18.2947	20.1124	73.7968
241	241	1	4	75.6608	33.1406	83.1156
242	242	1	4	29.1998	64.9330	29.9645
243	243	1	4	89.5625	6.5814	12.8156
244	244	1	4	21.7384	45.3539	89.8776
245	245	1	4	53.6681	83.0431	67.8500
246	246	1	4	86.4537	59.6304	29.2755
247	247	1	4	9.9560	11.6276	87.6003
248	248	1	4	54.0624	18.3364	8.3390
249	249	1	4	24.3419	88.3557	84.7232
250	250	1	4	38.1554	61.9642	29.9465
251	251	1	4	54.2796	59.6596	83.9425
252	252	1	4	66.9752	54.0481	38.5591
253	253	1	4	63.6977	29.2719	23.9630
254	254	1	4	69.1514	59.3218	84.2317
255	255	1	4	32.6545	66.1794	72.8042
256	256	1	4	54.6074	54.8979	32.5847
257	257	1	4	0.5130	58.1428	62.3574
258	258	1	4	46.7686	71.4963	46.2697
259	259	1	4	87.9766	19.5721	53.5591
260	260	1	4	58.0672	8.3236	16.9571
261	261	1	4	62.1721	52.2907	51.5056
262	262	1	4	68.6615	11.1641	75.6623
263	263	1	4	19.5200	63.0432	11.7250
264	264	1	4	32.6423	56.7784	59.3260
265	265	1	4	36.9932	30.4765	31.7126
266	266	1	4	79.2807	25.6629	21.1125
267	267	1	4	69.5427	2.4985	66.3213
268	268	1	4	86.7538	36.6796	22.8272
269	269	1	4	38.1120	17.8538	10.0218
270	270	1	4	74.5489	10.8877	27.1669
271	271	1	4	86.8980	86.0393	75.6337
272	272	1	4	16.2202	88.5388	70.8835
273	273	1	4	19.8980	36.6188	25.2060
274	274	1	4	73.7987	82.5049	89.8603
275	275	1	4	76.2101	80.7884	11.2774
276	276	1	4	72.8635	4.3299	76.0221
277	277	1	4	54.1088	51.3238	90.1752
278	278	1	4	53.6622	76.0379	10.8928
279	279	1	4	55.5853	53.6204	43.2833
280	280	1	4	64.0615	24.9223	71.1708
281	281	1	4	69.5316	52.6879	12.8251
282	282	1	4	36.4701	22.3307	19.8145
283	283	1	4	81.0631	30.6634	0.4735
284	284	1	4	89.5941	80.2330	52.8257
285	285	1	4	31.6547	4.7814	32.3959
286	286	1	4	49.8870	15.3344	55.3188
287	287	1	4	0.4869	47.8906	37.3953
288	288	1	4	14.8274	52.3579	15.3951
289	289	1	4	12.8574	69.0560	5.8726
290	290	1	4	5.2505	7.8666	82.7096
291	291	1	4	44.6251	24.7331	54.1181
292	292	1	4	77.3402	22.5923	19.2364
293	293	1	4	33.2942	12.2256	37.5951
294	294	1	4	43.9584	5.3046	67.9011
295	295	1	4	36.6691	90.4924	41.7055
296	296	1	4	6.0185	33.5156	66.4505
297	297	1	4	84.3744	80.3542	43.5485
298	298	1	4	38.6537	40.0606	76.0317
299	299	1	4	90.5655	33.1066	59.5797
300	300	1	4	72.9893	26.5034	52.7305
301	301	1	4	53.3208	36.1688	60.3976
302	302	1	4	31.7582	79.7988	10.3322
303	303	1	4	25.4610	11.1253	50.8719
304	304	1	4	39.1660	24.8945	21.6681
305	305	1	4	70.5081	41.5412	85.5720
306	306	1	4	48.3766	7.0361	12.7075
307	307	1	4	1.4851	19.9536	11.7509
308	308	1	4	60.8153	57.4383	32.3413
309	309	1	4	32.0141	29.8832	84.9675
310	310	1	4	57.4040	39.0122	11.6963
311	311	1	4	73.8968	54.1792	50.4591
312	312	1	4	76.2754	82.3133	91.2237
313	313	1	4	60.3115	85.5165	55.1357
314	314	1	4	66.0782	7.4932	3.3233
315	315	1	4	27.5555	19.1445	28.8224
316	316	1	4	35.7113	80.9726	56.8857
317	317	1	4	80.3635	26.2537	29.7443
318	318	1	4	38.3288	80.4103	90.8216
319	319	1	4	44.1660	13.8002	14.3339
320	320	1	4	26.0463	27.6537	44.7430
321	321	1	4	79.8553	91.4588	74.1202
322	322	1	4	37.6438	11.0608	22.0993
323	323	1	4	19.3588	48.3734	43.1412
324	324	1	4	42.9063	66.7611	65.9163
325	325	1	4	54.4670	40.2705	85.1296
326	326	1	4	51.2208	62.3589	78.0999
327	327	1	4	16.1923	28.4995	10.3680
328	328	1	4	77.6746	16.7222	29.7101
329	329	1	4	62.6811	69.6352	28.7867
330	330	1	4	69.2800	2.1290	6.7176
331	331	1	4	33.5907	9.0004	72.6862
332	332	1	4	12.0214	36.2779	25.6370
333	333	1	4	45.4136	80.1530	59.1494
334	334	1	4	0.0649	34.9887	86.0442
335	335	1	4	31.6623	78.0476	60.8397
336	336	1	4	92.1372	17.8042	62.9823
337	337	1	4	54.4084	62.0453	31.6891
338	338	1	4	50.0646	39.5432	59.7925
339	339	1	4	77.8786	14.3228	52.0061
340	340	1	4	82.9956	59.0299	25.7056
341	341	1	4	31.8003	12.9239	47.2220
342	342	1	4	7.3888	13.6440	17.4422
343	343	1	4	25.7513	55.0147	45.6428
344	344	1	4	16.2199	17.9076	21.8580
345	345	1	4	41.8723	1.7705	6.2037
346	346	1	4	82.8604	33.7415	34.7387
347	347	1	4	42.1035	6.3021	83.5541
348	348	1	4	78.6314	39.5362	27.8023
349	349	1	4	26.1187	89.8051	3.3883
350	350	1	4	39.8160	36.8162	27.1670
351	351	1	4	77.8225	64.3245	72.2763
352	352	1	4	87.7389	36.1167	12.1070
353	353	1	4	56.1418	27.7489	20.4652
354	354	1	4	42.9770	32.2246	67.8223
355	355	1	4	1.8321	78.0080	89.1287
356	356	1	4	0.5209	1.7289	75.3736
357	357	1	4	46.4135	20.1737	34.9322
358	358	1	4	79.8569	54.1387	50.2846
359	359	1	4	41.8379	28.6346	79.9907
360	360	1	4	83.0226	39.4685	14.6700
361	361	1	4	76.6350	6.4147	65.1367
362	362	1	4	35.9498	51.9236	10.0839
363	363	1	4	37.4725	15.0072	39.0865
364	364	1	4	51.5191	62.8204	80.3507
365	365	1	4	88.4600	28.7216	13.1176
366	366	1	4	16.0900	87.3856	36.9039
367	367	1	4	70.7612	18.3115	29.5094
368	368	1	4	52.3021	74.2345	63.8568
369	369	1	4	36.2035	23.5356	90.1135
370	370	1	4	31.1803	77.0914	44.1017
371	371	1	4	31.6640	29.9334	44.7643
372	372	1	4	15.2842	90.9037	38.6812
373	373	1	4	54.9261	56.8421	1.4033
374	374	1	4	64.4419	43.8539	23.8066
375	375	1	4	79.7346	31.5197	20.2742
376	376	1	4	81.7086	5.3114	75.1098
377	377	1	4	71.4570	83.0446	3.9385
378	378	1	4	57.4590	8.5122	6.3148
379	379	1	4	29.5889	84.7969	43.1594
380	380	1	4	69.2225	70.0164	11.3684
381	381	1	4	38.4980	13.6875	34.1869
382	382	1	4	84.8653	83.5886	40.2525
383	383	1	4	83.6818	56.0942	71.0406
384	384	1	4	3.5044	92.6246	4.9595
385	385	1	4	2.5361	2.5831	23.8980
386	386	1	4	54.1915	20.3023	22.1745
387	387	1	4	84.5196	26.6922	56.5067
388	388	1	4	18.3240	75.6381	48.5834
389	389	1	4	27.0671	7.6910	28.4577
390	390	1	4	59.9112	43.1146	0.9184
391	391	1	4	1.9651	64.9132	7.9917
392	392	1	4	65.3903	34.8153	35.4351
393	393	1	4	28.4813	86.7451	64.9319
394	394	1	4	27.9620	71.1908	19.6798
395	395	1	4	24.2256	4.3674	64.6292
396	396	1	4	12.2413	7.2933	77.3732
397	397	1	4	59.2730	57.8576	17.4487
398	398	1	4	0.1489	39.7399	75.3246
399	399	1	4	71.0051	85.5227	37.4272
400	400	1	4	76.2008	50.0308	5.6916
401	401	1	4	42.0201	2.9705	81.8948
402	402	1	4	63.4828	18.5898	71.6504
403	403	1	4	12.8410	90.9579	16.9822
404	404	1	4	69.1363	31.0159	69.1900
405	405	1	4	13.3624	87.8135	70.2351
406	406	1	4	34.9885	89.8102	48.6980
407	407	1	4	38.3751	53.0761	65.2876
408	408	1	4	63.1657	75.1743	19.8177
409	409	1	4	33.6282	66.2982	9.6972
410	410	1	4	14.0860	83.0236	43.8189
411	411	1	4	88.6843	27.2056	16.2345
412	412	1	4	55.2315	19.0741	92.0667
413	413	1	4	90.3784	27.8378	35.8764
414	414	1	4	58.2907	78.1204	11.2755
415	415	1	4	69.5469	86.4091	34.0424
416	416	1	4	79.2016	55.3383	16.7443
417	417	1	4	89.0409	84.1161	90.8672
418	418	1	4	8.8649	10.1694	54.9836
419	419	1	4	79.0560	42.8397	72.4577
420	420	1	4	1.5922	51.4114	10.1901
421	421	1	4	42.5010	14.8736	6.0086
422	422	1	4	18.6528	52.9027	88.6748
423	423	1	4	38.0752	15.4583	22.1837
424	424	1	4	59.9906	83.9182	60.1079
425	425	1	4	39.9378	28.4024	7.4956
426	426	1	4	8.8029	30.5570	9.3017
427	427	1	4	43.1748	9.1239	8.3882
428	428	1	4	82.6123	87.2268	36.4119
429	429	1	4	25.5494	46.9038	18.4000
430	430	1	4	59.1994	92.0413	77.1858
431	431	1	4	23.5283	86.4695	20.2551
432	432	1	4	21.3044	92.2539	59.9071
433	433	1	4	33.5645	6.4075	57.2761
434	434	1	4	11.6732	27.5453	48.8492
435	435	1	4	91.3098	8.6329	3.0304
436	436	1	4	48.0463	21.5691	87.9012
437	437	1	4	31.2364	30.7934	6.8382
438	438	1	4	53.9340	72.6657	24.1700
439	439	1	4	66.5937	27.4665	21.1322
440	440	1	4	43.9623	54.7838	68.0262
441	441	1	4	59.5271	82.1151	23.9802
442	442	1	4	22.7223	11.2808	36.4313
443	443	1	4	76.4038	12.1768	81.1021
444	444	1	4	41.2416	27.7020	28.6214
445	445	1	4	13.5136	68.7104	89.7675
446	446	1	4	83.8323	71.4015	10.5282
447	447	1	4	80.2068	4.6975	22.9855
448	448	1	4	26.4546	64.3621	7.8544
449	449	1	4	85.2511	13.1350	87.2812