# data file for 2000 SiO2 precursors with porosity capabilities 
-4 97 xlo xhi
-4 97 ylo yhi
-4 97 zlo zhi

6600 atoms
0 bonds
0 angles
0 dihedrals

3 atom types
0 bond types
0 angle types
93 dihedral types

Masses

	1	28
	2	16
	3	12

Dihedral Coeffs

	1	opls	0.3750	-0.2000	0.6250	-0.1000
	2	opls	0.0179	-0.0075	0.0613	-0.0025
	3	opls	0.0169	-0.0034	0.0596	-0.0029
	4	opls	0.0061	-0.0064	0.0680	-0.0032
	5	opls	5.1866	-0.7573	0.1955	-0.0484
	6	opls	0.0576	-0.0276	0.2311	-0.0588
	7	opls	-0.0286	-0.0002	0.1981	0.0137
	8	opls	0.0956	-0.0347	0.1311	0.0000
	9	opls	0.1046	-0.0471	0.1689	-0.0028
	10	opls	0.0838	-0.0315	0.1378	0.0019
	11	opls	0.8070	-0.1106	0.3748	0.0532
	12	opls	-0.6350	0.6467	1.1307	0.3021
	13	opls	0.1107	-0.0504	0.1594	-0.0041
	14	opls	0.0906	-0.0352	0.1327	-0.0002
	15	class2	0.0035	180.0000	0.0027	180.0000	0.0293	0.0000
	16	class2	0.0000	0.0000	0.0107	180.0000	0.0000	0.0000
	17	class2	5.5263	0.0000	0.0530	-180.0000	-0.4549	0.0000
	18	class2	-0.1743	109.1530	0.3162	-21.2130	0.3766	175.7110
	19	class2	0.2604	171.4810	0.3939	21.0160	-0.3950	-2.2800
	20	class2	0.2017	161.8610	0.5048	-32.1150	-0.4248	-17.8790
	21	class2	-0.3007	39.6560	0.3059	58.2670	0.5730	136.8990
	22	opls	0.0865	-0.0347	0.1369	0.0009
	23	opls	0.0260	-0.0152	0.0313	-0.0022
	24	class2	-0.0021	180.0000	0.0068	-180.0000	0.0249	180.0000
	25	class2	4.5288	-0.6922	0.0593	51.2299	-0.2849	1.8864
	26	class2	4.7117	-0.4973	0.0435	52.0125	-0.2714	1.4150
	27	class2	0.8503	40.1737	-0.1729	13.8124	0.1254	35.6974
	28	class2	0.7650	125.8283	0.2084	70.9850	-0.2223	53.7952
	29	class2	2.3416	-0.3794	-1.0343	-7.6031	0.2588	28.8160
	30	class2	0.2934	193.2417	0.5263	-11.9147	0.5367	3.4434
	31	class2	-0.3151	71.1896	0.7877	71.3081	0.3381	77.8020
	32	class2	0.3951	169.0500	0.5022	178.8020	0.0764	-5.1270
	33	class2	10.3083	0.4429	-1.4613	3.3498	-0.1841	-12.1460
	34	class2	-0.4315	-364.9834	0.9677	2.8426	0.4723	3.5497
	35	class2	6.2855	-2.0981	0.2675	-15.2695	-0.4898	-10.1079
	36	class2	4.9462	179.8800	-1.0263	-0.8136	-0.0716	-7.8033
	37	class2	2.6998	-179.9669	-0.4484	0.7193	0.0104	-0.6393
	38	class2	1.8296	0.0001	-0.4451	-719.9997	0.1002	360.0002
	39	class2	0.0080	-180.3242	3.2482	0.0006	-1.0463	0.0008
	40	class2	2.8410	-179.3710	-0.5109	5.3337	0.0303	-113.8039
	41	class2	7.6688	0.0005	-0.5919	0.0007	-0.0862	0.0020
	42	class2	6.3460	-0.3509	0.2224	10.0512	-0.3425	2.4027
	43	class2	5.0792	180.1606	-1.0138	1.1164	-0.0723	9.8006
	44	class2	-0.4257	-358.8127	0.8587	-0.6041	0.4727	-1.6051
	45	class2	-0.4508	-360.0038	0.9913	0.0015	0.5017	0.0020
	46	class2	-0.4919	-359.9981	1.0041	-0.0026	0.5645	-0.0034
	47	class2	1.7647	-20.8475	0.0678	159.1707	-0.1965	-45.8413
	48	class2	3.0848	-3.8071	1.7944	6.9829	-0.7375	7.1513
	49	class2	7.6697	-2.5235	0.0050	132.1655	-0.4974	-7.1371
	50	class2	-0.3693	19.0216	0.9139	-20.9413	0.3698	-28.5713
	51	class2	6.2877	0.0002	0.0062	179.7813	-0.2226	0.0006
	52	class2	-0.5075	-359.9967	1.0392	-0.0032	0.5761	-0.0030
	53	class2	5.6305	0.3752	0.4331	-365.9955	-0.3846	-3.0171
	54	class2	-0.5053	4.4285	1.0130	-3.1775	0.5782	-4.2238
	55	class2	7.9597	-0.2710	0.0333	89.8772	-0.4914	0.9408
	56	class2	3.8790	-184.2933	-1.2072	-17.2079	0.3490	147.2990
	57	class2	-0.4182	-364.9790	0.8808	2.9750	0.4528	3.8338
	58	class2	2.0839	-180.4693	-0.1593	-9.3972	0.0180	47.0579
	59	class2	1.7381	0.1429	-0.4096	-358.8383	0.0660	8.7887
	60	class2	6.7533	-2.0243	-1.9530	-1.4807	0.0580	99.7790
	61	class2	-0.9140	202.9373	1.2977	-32.1869	0.8765	155.8002
	62	class2	1.8710	223.1544	-0.3706	87.9349	-0.0495	365.1257
	63	class2	3.0707	-1.2185	0.2774	65.9386	-0.7059	15.0545
	64	class2	2.9283	-15.0151	-1.1277	276.2944	0.6598	228.3612
	65	class2	1.8307	-222.5725	-0.4268	-90.0072	0.0828	-558.4135
	66	class2	9.5372	0.9773	-3.5352	2.9422	0.4581	370.8671
	67	class2	1.9510	-131.6122	-0.5165	90.0285	-0.0456	-337.9184
	68	class2	1.8938	582.4854	-0.4080	76.6182	-0.0919	713.9953
	69	class2	1.9140	-942.6125	-0.4268	-77.9410	-0.0803	4.4302
	70	class2	1.9279	-227.9388	-0.5723	-87.6316	0.0604	500.6796
	71	class2	1.5133	0.2833	-0.5533	1.0617	0.0803	4.7019
	72	class2	2.4022	-179.9998	-0.2712	-0.0017	-0.0121	-0.0682
	73	class2	2.2298	-180.4677	-0.1342	-15.8914	0.0309	37.6600
	74	class2	2.2890	0.0000	-0.4075	0.0008	0.0863	0.0157
	75	class2	8.5169	0.0003	-1.9922	0.0002	0.2309	-0.0030
	76	class2	3.6060	180.0178	-0.4492	0.2302	-0.0193	2.4646
	77	class2	5.9686	0.0005	-0.9737	0.0009	0.0460	-0.0033
	78	class2	9.0287	0.0003	-2.3777	0.0007	0.3567	360.0008
	79	class2	3.6724	179.7356	-0.5816	-2.9735	0.1224	163.9270
	80	class2	5.7865	0.0004	-0.9491	0.0009	0.0727	360.0006
	81	class2	8.9280	0.0005	-2.2503	0.0009	0.3143	0.0009
	82	class2	4.4731	180.1046	0.6418	180.9413	-0.7977	3.9569
	83	class2	3.1704	179.5199	0.1469	-190.0902	-0.2442	209.1656
	84	class2	3.6009	-178.5417	-0.7071	12.6466	0.2241	-142.7069
	85	class2	2.4979	-179.8091	-0.2606	3.0417	-0.0092	51.9182
	86	class2	6.3427	0.0005	-0.8170	0.0013	-0.0580	-0.0059
	87	class2	2.5345	-180.0001	-0.2828	-0.0009	-0.0147	-0.0958
	88	class2	6.2688	0.0003	-0.8322	-0.0001	-0.0521	0.0055
	89	class2	6.7857	0.2910	-0.9941	1.7588	0.0057	127.6178
	90	opls	0.0577	0.0047	0.0576	-0.0524
	91	class2	3.2021	-179.8357	-0.2798	8.8830	0.0369	-89.1100
	92	opls	0.0576	0.0022	0.0563	-0.0486
	93	class2	3.1576	-180.3262	-0.2700	-1.2677	0.0057	52.3925

MiddleBondTorsion Coeffs

	1	opls
	2	opls
	3	opls
	4	opls
	5	opls
	6	opls
	7	opls
	8	opls
	9	opls
	10	opls
	11	opls
	12	opls
	13	opls
	14	opls
	15	class2	0	0	0	0
	16	class2	0	0	0	0
	17	class2	0	0	0	0
	18	class2	0	0	0	0
	19	class2	0	0	0	0
	20	class2	0	0	0	0
	21	class2	0	0	0	0
	22	opls
	23	opls
	24	class2	0	0	0	0
	25	class2	0	0	0	0
	26	class2	0	0	0	0
	27	class2	0	0	0	0
	28	class2	0	0	0	0
	29	class2	0	0	0	0
	30	class2	0	0	0	0
	31	class2	0	0	0	0
	32	class2	0	0	0	0
	33	class2	0	0	0	0
	34	class2	0	0	0	0
	35	class2	0	0	0	0
	36	class2	0	0	0	0
	37	class2	0	0	0	0
	38	class2	0	0	0	0
	39	class2	0	0	0	0
	40	class2	0	0	0	0
	41	class2	0	0	0	0
	42	class2	0	0	0	0
	43	class2	0	0	0	0
	44	class2	0	0	0	0
	45	class2	0	0	0	0
	46	class2	0	0	0	0
	47	class2	0	0	0	0
	48	class2	0	0	0	0
	49	class2	0	0	0	0
	50	class2	0	0	0	0
	51	class2	0	0	0	0
	52	class2	0	0	0	0
	53	class2	0	0	0	0
	54	class2	0	0	0	0
	55	class2	0	0	0	0
	56	class2	0	0	0	0
	57	class2	0	0	0	0
	58	class2	0	0	0	0
	59	class2	0	0	0	0
	60	class2	0	0	0	0
	61	class2	0	0	0	0
	62	class2	0	0	0	0
	63	class2	0	0	0	0
	64	class2	0	0	0	0
	65	class2	0	0	0	0
	66	class2	0	0	0	0
	67	class2	0	0	0	0
	68	class2	0	0	0	0
	69	class2	0	0	0	0
	70	class2	0	0	0	0
	71	class2	0	0	0	0
	72	class2	0	0	0	0
	73	class2	0	0	0	0
	74	class2	0	0	0	0
	75	class2	0	0	0	0
	76	class2	0	0	0	0
	77	class2	0	0	0	0
	78	class2	0	0	0	0
	79	class2	0	0	0	0
	80	class2	0	0	0	0
	81	class2	0	0	0	0
	82	class2	0	0	0	0
	83	class2	0	0	0	0
	84	class2	0	0	0	0
	85	class2	0	0	0	0
	86	class2	0	0	0	0
	87	class2	0	0	0	0
	88	class2	0	0	0	0
	89	class2	0	0	0	0
	90	opls
	91	class2	0	0	0	0
	92	opls
	93	class2	0	0	0	0

EndBondTorsion Coeffs

	1	opls
	2	opls
	3	opls
	4	opls
	5	opls
	6	opls
	7	opls
	8	opls
	9	opls
	10	opls
	11	opls
	12	opls
	13	opls
	14	opls
	15	class2	0	0	0	0	0	0	0	0
	16	class2	0	0	0	0	0	0	0	0
	17	class2	0	0	0	0	0	0	0	0
	18	class2	0	0	0	0	0	0	0	0
	19	class2	0	0	0	0	0	0	0	0
	20	class2	0	0	0	0	0	0	0	0
	21	class2	0	0	0	0	0	0	0	0
	22	opls
	23	opls
	24	class2	0	0	0	0	0	0	0	0
	25	class2	0	0	0	0	0	0	0	0
	26	class2	0	0	0	0	0	0	0	0
	27	class2	0	0	0	0	0	0	0	0
	28	class2	0	0	0	0	0	0	0	0
	29	class2	0	0	0	0	0	0	0	0
	30	class2	0	0	0	0	0	0	0	0
	31	class2	0	0	0	0	0	0	0	0
	32	class2	0	0	0	0	0	0	0	0
	33	class2	0	0	0	0	0	0	0	0
	34	class2	0	0	0	0	0	0	0	0
	35	class2	0	0	0	0	0	0	0	0
	36	class2	0	0	0	0	0	0	0	0
	37	class2	0	0	0	0	0	0	0	0
	38	class2	0	0	0	0	0	0	0	0
	39	class2	0	0	0	0	0	0	0	0
	40	class2	0	0	0	0	0	0	0	0
	41	class2	0	0	0	0	0	0	0	0
	42	class2	0	0	0	0	0	0	0	0
	43	class2	0	0	0	0	0	0	0	0
	44	class2	0	0	0	0	0	0	0	0
	45	class2	0	0	0	0	0	0	0	0
	46	class2	0	0	0	0	0	0	0	0
	47	class2	0	0	0	0	0	0	0	0
	48	class2	0	0	0	0	0	0	0	0
	49	class2	0	0	0	0	0	0	0	0
	50	class2	0	0	0	0	0	0	0	0
	51	class2	0	0	0	0	0	0	0	0
	52	class2	0	0	0	0	0	0	0	0
	53	class2	0	0	0	0	0	0	0	0
	54	class2	0	0	0	0	0	0	0	0
	55	class2	0	0	0	0	0	0	0	0
	56	class2	0	0	0	0	0	0	0	0
	57	class2	0	0	0	0	0	0	0	0
	58	class2	0	0	0	0	0	0	0	0
	59	class2	0	0	0	0	0	0	0	0
	60	class2	0	0	0	0	0	0	0	0
	61	class2	0	0	0	0	0	0	0	0
	62	class2	0	0	0	0	0	0	0	0
	63	class2	0	0	0	0	0	0	0	0
	64	class2	0	0	0	0	0	0	0	0
	65	class2	0	0	0	0	0	0	0	0
	66	class2	0	0	0	0	0	0	0	0
	67	class2	0	0	0	0	0	0	0	0
	68	class2	0	0	0	0	0	0	0	0
	69	class2	0	0	0	0	0	0	0	0
	70	class2	0	0	0	0	0	0	0	0
	71	class2	0	0	0	0	0	0	0	0
	72	class2	0	0	0	0	0	0	0	0
	73	class2	0	0	0	0	0	0	0	0
	74	class2	0	0	0	0	0	0	0	0
	75	class2	0	0	0	0	0	0	0	0
	76	class2	0	0	0	0	0	0	0	0
	77	class2	0	0	0	0	0	0	0	0
	78	class2	0	0	0	0	0	0	0	0
	79	class2	0	0	0	0	0	0	0	0
	80	class2	0	0	0	0	0	0	0	0
	81	class2	0	0	0	0	0	0	0	0
	82	class2	0	0	0	0	0	0	0	0
	83	class2	0	0	0	0	0	0	0	0
	84	class2	0	0	0	0	0	0	0	0
	85	class2	0	0	0	0	0	0	0	0
	86	class2	0	0	0	0	0	0	0	0
	87	class2	0	0	0	0	0	0	0	0
	88	class2	0	0	0	0	0	0	0	0
	89	class2	0	0	0	0	0	0	0	0
	90	opls
	91	class2	0	0	0	0	0	0	0	0
	92	opls
	93	class2	0	0	0	0	0	0	0	0

AngleTorsion Coeffs

	1	opls
	2	opls
	3	opls
	4	opls
	5	opls
	6	opls
	7	opls
	8	opls
	9	opls
	10	opls
	11	opls
	12	opls
	13	opls
	14	opls
	15	class2	0	0	0	0	0	0	0	0
	16	class2	0	0	0	0	0	0	0	0
	17	class2	0	0	0	0	0	0	0	0
	18	class2	0	0	0	0	0	0	0	0
	19	class2	0	0	0	0	0	0	0	0
	20	class2	0	0	0	0	0	0	0	0
	21	class2	0	0	0	0	0	0	0	0
	22	opls
	23	opls
	24	class2	0	0	0	0	0	0	0	0
	25	class2	0	0	0	0	0	0	0	0
	26	class2	0	0	0	0	0	0	0	0
	27	class2	0	0	0	0	0	0	0	0
	28	class2	0	0	0	0	0	0	0	0
	29	class2	0	0	0	0	0	0	0	0
	30	class2	0	0	0	0	0	0	0	0
	31	class2	0	0	0	0	0	0	0	0
	32	class2	0	0	0	0	0	0	0	0
	33	class2	0	0	0	0	0	0	0	0
	34	class2	0	0	0	0	0	0	0	0
	35	class2	0	0	0	0	0	0	0	0
	36	class2	0	0	0	0	0	0	0	0
	37	class2	0	0	0	0	0	0	0	0
	38	class2	0	0	0	0	0	0	0	0
	39	class2	0	0	0	0	0	0	0	0
	40	class2	0	0	0	0	0	0	0	0
	41	class2	0	0	0	0	0	0	0	0
	42	class2	0	0	0	0	0	0	0	0
	43	class2	0	0	0	0	0	0	0	0
	44	class2	0	0	0	0	0	0	0	0
	45	class2	0	0	0	0	0	0	0	0
	46	class2	0	0	0	0	0	0	0	0
	47	class2	0	0	0	0	0	0	0	0
	48	class2	0	0	0	0	0	0	0	0
	49	class2	0	0	0	0	0	0	0	0
	50	class2	0	0	0	0	0	0	0	0
	51	class2	0	0	0	0	0	0	0	0
	52	class2	0	0	0	0	0	0	0	0
	53	class2	0	0	0	0	0	0	0	0
	54	class2	0	0	0	0	0	0	0	0
	55	class2	0	0	0	0	0	0	0	0
	56	class2	0	0	0	0	0	0	0	0
	57	class2	0	0	0	0	0	0	0	0
	58	class2	0	0	0	0	0	0	0	0
	59	class2	0	0	0	0	0	0	0	0
	60	class2	0	0	0	0	0	0	0	0
	61	class2	0	0	0	0	0	0	0	0
	62	class2	0	0	0	0	0	0	0	0
	63	class2	0	0	0	0	0	0	0	0
	64	class2	0	0	0	0	0	0	0	0
	65	class2	0	0	0	0	0	0	0	0
	66	class2	0	0	0	0	0	0	0	0
	67	class2	0	0	0	0	0	0	0	0
	68	class2	0	0	0	0	0	0	0	0
	69	class2	0	0	0	0	0	0	0	0
	70	class2	0	0	0	0	0	0	0	0
	71	class2	0	0	0	0	0	0	0	0
	72	class2	0	0	0	0	0	0	0	0
	73	class2	0	0	0	0	0	0	0	0
	74	class2	0	0	0	0	0	0	0	0
	75	class2	0	0	0	0	0	0	0	0
	76	class2	0	0	0	0	0	0	0	0
	77	class2	0	0	0	0	0	0	0	0
	78	class2	0	0	0	0	0	0	0	0
	79	class2	0	0	0	0	0	0	0	0
	80	class2	0	0	0	0	0	0	0	0
	81	class2	0	0	0	0	0	0	0	0
	82	class2	0	0	0	0	0	0	0	0
	83	class2	0	0	0	0	0	0	0	0
	84	class2	0	0	0	0	0	0	0	0
	85	class2	0	0	0	0	0	0	0	0
	86	class2	0	0	0	0	0	0	0	0
	87	class2	0	0	0	0	0	0	0	0
	88	class2	0	0	0	0	0	0	0	0
	89	class2	0	0	0	0	0	0	0	0
	90	opls
	91	class2	0	0	0	0	0	0	0	0
	92	opls
	93	class2	0	0	0	0	0	0	0	0

AngleAngleTorsion Coeffs

	1	opls
	2	opls
	3	opls
	4	opls
	5	opls
	6	opls
	7	opls
	8	opls
	9	opls
	10	opls
	11	opls
	12	opls
	13	opls
	14	opls
	15	class2	0	0	0
	16	class2	0	0	0
	17	class2	0	0	0
	18	class2	0	0	0
	19	class2	0	0	0
	20	class2	0	0	0
	21	class2	0	0	0
	22	opls
	23	opls
	24	class2	0	0	0
	25	class2	0	0	0
	26	class2	0	0	0
	27	class2	0	0	0
	28	class2	0	0	0
	29	class2	0	0	0
	30	class2	0	0	0
	31	class2	0	0	0
	32	class2	0	0	0
	33	class2	0	0	0
	34	class2	0	0	0
	35	class2	0	0	0
	36	class2	0	0	0
	37	class2	0	0	0
	38	class2	0	0	0
	39	class2	0	0	0
	40	class2	0	0	0
	41	class2	0	0	0
	42	class2	0	0	0
	43	class2	0	0	0
	44	class2	0	0	0
	45	class2	0	0	0
	46	class2	0	0	0
	47	class2	0	0	0
	48	class2	0	0	0
	49	class2	0	0	0
	50	class2	0	0	0
	51	class2	0	0	0
	52	class2	0	0	0
	53	class2	0	0	0
	54	class2	0	0	0
	55	class2	0	0	0
	56	class2	0	0	0
	57	class2	0	0	0
	58	class2	0	0	0
	59	class2	0	0	0
	60	class2	0	0	0
	61	class2	0	0	0
	62	class2	0	0	0
	63	class2	0	0	0
	64	class2	0	0	0
	65	class2	0	0	0
	66	class2	0	0	0
	67	class2	0	0	0
	68	class2	0	0	0
	69	class2	0	0	0
	70	class2	0	0	0
	71	class2	0	0	0
	72	class2	0	0	0
	73	class2	0	0	0
	74	class2	0	0	0
	75	class2	0	0	0
	76	class2	0	0	0
	77	class2	0	0	0
	78	class2	0	0	0
	79	class2	0	0	0
	80	class2	0	0	0
	81	class2	0	0	0
	82	class2	0	0	0
	83	class2	0	0	0
	84	class2	0	0	0
	85	class2	0	0	0
	86	class2	0	0	0
	87	class2	0	0	0
	88	class2	0	0	0
	89	class2	0	0	0
	90	opls
	91	class2	0	0	0
	92	opls
	93	class2	0	0	0

BondBond13 Coeffs

	1	opls
	2	opls
	3	opls
	4	opls
	5	opls
	6	opls
	7	opls
	8	opls
	9	opls
	10	opls
	11	opls
	12	opls
	13	opls
	14	opls
	15	class2	0	0	0
	16	class2	0	0	0
	17	class2	0	0	0
	18	class2	0	0	0
	19	class2	0	0	0
	20	class2	0	0	0
	21	class2	0	0	0
	22	opls
	23	opls
	24	class2	0	0	0
	25	class2	0	0	0
	26	class2	0	0	0
	27	class2	0	0	0
	28	class2	0	0	0
	29	class2	0	0	0
	30	class2	0	0	0
	31	class2	0	0	0
	32	class2	0	0	0
	33	class2	0	0	0
	34	class2	0	0	0
	35	class2	0	0	0
	36	class2	0	0	0
	37	class2	0	0	0
	38	class2	0	0	0
	39	class2	0	0	0
	40	class2	0	0	0
	41	class2	0	0	0
	42	class2	0	0	0
	43	class2	0	0	0
	44	class2	0	0	0
	45	class2	0	0	0
	46	class2	0	0	0
	47	class2	0	0	0
	48	class2	0	0	0
	49	class2	0	0	0
	50	class2	0	0	0
	51	class2	0	0	0
	52	class2	0	0	0
	53	class2	0	0	0
	54	class2	0	0	0
	55	class2	0	0	0
	56	class2	0	0	0
	57	class2	0	0	0
	58	class2	0	0	0
	59	class2	0	0	0
	60	class2	0	0	0
	61	class2	0	0	0
	62	class2	0	0	0
	63	class2	0	0	0
	64	class2	0	0	0
	65	class2	0	0	0
	66	class2	0	0	0
	67	class2	0	0	0
	68	class2	0	0	0
	69	class2	0	0	0
	70	class2	0	0	0
	71	class2	0	0	0
	72	class2	0	0	0
	73	class2	0	0	0
	74	class2	0	0	0
	75	class2	0	0	0
	76	class2	0	0	0
	77	class2	0	0	0
	78	class2	0	0	0
	79	class2	0	0	0
	80	class2	0	0	0
	81	class2	0	0	0
	82	class2	0	0	0
	83	class2	0	0	0
	84	class2	0	0	0
	85	class2	0	0	0
	86	class2	0	0	0
	87	class2	0	0	0
	88	class2	0	0	0
	89	class2	0	0	0
	90	opls
	91	class2	0	0	0
	92	opls
	93	class2	0	0	0

Atoms

1	1	1	4	16.5616	31.9812	1.8242
2	2	1	4	15.1207	15.0788	51.8381
3	3	1	4	19.3376	28.9580	17.5587
4	4	1	4	11.2882	7.0046	27.0784
5	5	1	4	58.1998	56.1299	0.2547
6	6	1	4	12.0814	74.1442	89.3105
7	7	1	4	62.4626	34.3085	47.7260
8	8	1	4	87.6677	9.9253	64.4835
9	9	1	4	39.6825	85.0549	48.5619
10	10	1	4	11.2559	32.5941	75.4283
11	11	1	4	84.0240	48.1728	23.9266
12	12	1	4	68.0297	10.1447	43.2112
13	13	1	4	21.7035	84.7946	51.7051
14	14	1	4	39.4225	38.0698	27.7798
15	15	1	4	32.4467	15.1563	9.5709
16	16	1	4	47.7431	79.3567	33.9042
17	17	1	4	13.1949	90.7420	43.7054
18	18	1	4	89.3201	24.7425	9.7533
19	19	1	4	3.4288	37.2408	17.6434
20	20	1	4	45.1935	79.0259	77.6167
21	21	1	4	35.9821	23.3420	55.2419
22	22	1	4	75.5588	3.3250	74.2271
23	23	1	4	77.0217	87.1318	35.9462
24	24	1	4	64.2253	87.0200	56.9729
25	25	1	4	6.5520	15.3230	82.3838
26	26	1	4	4.7524	57.5321	31.8706
27	27	1	4	75.6842	44.1001	6.1798
28	28	1	4	67.3196	47.4292	2.6098
29	29	1	4	88.8348	76.2661	63.5436
30	30	1	4	38.7753	70.3007	33.1811
31	31	1	4	68.2035	41.8092	20.6527
32	32	1	4	27.2803	47.8958	33.8090
33	33	1	4	89.9781	22.5716	32.2558
34	34	1	4	4.9642	2.3526	50.7715
35	35	1	4	67.1826	14.2139	39.8434
36	36	1	4	83.2167	25.8856	90.4957
37	37	1	4	10.5907	55.9489	17.9125
38	38	1	4	43.6996	22.4062	63.3341
39	39	1	4	10.8213	49.2673	30.0797
40	40	1	4	62.8673	38.9127	43.2970
41	41	1	4	20.9415	26.9333	62.2422
42	42	1	4	6.8052	13.9921	63.8498
43	43	1	4	17.5760	46.6295	25.3368
44	44	1	4	33.3226	70.2933	15.6287
45	45	1	4	72.0763	21.4785	25.9229
46	46	1	4	41.4454	11.5548	23.4892
47	47	1	4	5.2280	43.9542	14.6424
48	48	1	4	4.3280	9.2055	1.9131
49	49	1	4	4.9881	61.7751	89.0716
50	50	1	4	60.3393	3.5998	8.5000
51	51	1	4	42.6197	6.3866	14.6302
52	52	1	4	68.2840	75.4076	55.3012
53	53	1	4	17.0640	65.2613	74.1920
54	54	1	4	50.1791	27.2622	57.1340
55	55	1	4	25.1795	73.0945	48.6791
56	56	1	4	39.7311	57.7824	28.7853
57	57	1	4	49.5058	37.3054	17.0112
58	58	1	4	67.2270	39.8151	0.7182
59	59	1	4	9.7847	33.2384	50.5530
60	60	1	4	76.6927	64.1501	38.0661
61	61	1	4	8.5263	80.3405	47.2768
62	62	1	4	63.2045	23.7280	7.1472
63	63	1	4	38.4608	42.6133	69.2432
64	64	1	4	76.3194	5.2669	1.5092
65	65	1	4	5.0125	9.9312	14.0829
66	66	1	4	6.9134	51.8045	25.9501
67	67	1	4	2.6834	26.9584	48.0690
68	68	1	4	68.0703	20.1037	16.5279
69	69	1	4	3.4488	8.9031	19.9402
70	70	1	4	19.7067	27.0339	34.3706
71	71	1	4	58.5231	59.9829	54.0283
72	72	1	4	85.1637	89.4319	33.9767
73	73	1	4	54.1815	6.0889	87.3263
74	74	1	4	5.6170	50.5354	38.1710
75	75	1	4	67.1856	4.8737	24.6056
76	76	1	4	30.9047	53.7587	61.1348
77	77	1	4	32.0235	29.6746	14.7520
78	78	1	4	17.1791	32.5172	37.7557
79	79	1	4	6.1980	68.6582	51.8769
80	80	1	4	34.6876	67.0395	44.3347
81	81	1	4	58.8766	36.1544	51.2694
82	82	1	4	29.1930	51.4113	22.8526
83	83	1	4	45.5849	66.2430	26.6979
84	84	1	4	40.2766	20.6240	49.1490
85	85	1	4	40.2138	74.2091	67.8979
86	86	1	4	77.5584	78.8332	81.9105
87	87	1	4	22.6403	26.4830	44.7577
88	88	1	4	24.7682	76.7484	88.8230
89	89	1	4	76.4399	18.5911	6.9090
90	90	1	4	89.5982	83.3168	70.2615
91	91	1	4	72.2041	4.3657	33.1852
92	92	1	4	23.8333	85.8255	88.8620
93	93	1	4	1.1431	17.4706	0.6941
94	94	1	4	37.4270	60.1467	15.1513
95	95	1	4	36.5185	15.3849	4.0681
96	96	1	4	64.0198	89.4905	63.8014
97	97	1	4	3.9449	82.5346	82.5895
98	98	1	4	77.9193	53.6389	33.5837
99	99	1	4	26.2949	76.5504	46.3568
100	100	1	4	15.2060	60.0526	16.4873
101	101	1	4	35.1054	38.6113	9.3942
102	102	1	4	65.4812	68.9977	62.9820
103	103	1	4	62.0488	65.1479	71.8433
104	104	1	4	27.0436	37.3349	50.2710
105	105	1	4	1.1101	55.9112	83.1105
106	106	1	4	0.9599	51.0051	28.8949
107	107	1	4	68.6453	36.8028	19.1653
108	108	1	4	16.3170	73.9087	67.2635
109	109	1	4	72.4567	34.9281	39.4341
110	110	1	4	4.9929	70.0689	74.2631
111	111	1	4	41.6824	8.3221	81.6840
112	112	1	4	63.1220	46.7174	72.4688
113	113	1	4	64.5246	21.0909	54.5851
114	114	1	4	7.0819	40.8240	36.4781
115	115	1	4	5.1455	43.4463	13.5046
116	116	1	4	65.6041	62.2508	16.9986
117	117	1	4	85.7638	78.0244	18.9804
118	118	1	4	19.2285	5.3738	75.1944
119	119	1	4	69.9302	63.4662	50.4734
120	120	1	4	71.5135	3.2215	43.5033
121	121	1	4	47.2993	85.7394	89.0683
122	122	1	4	16.1212	7.8826	57.6441
123	123	1	4	76.4879	30.6111	22.0929
124	124	1	4	46.7734	88.6079	90.2896
125	125	1	4	19.4933	6.9250	27.2077
126	126	1	4	80.2815	13.8430	13.1242
127	127	1	4	7.6190	36.2805	39.2365
128	128	1	4	84.2556	22.0093	0.1272
129	129	1	4	19.0129	86.1924	49.2368
130	130	1	4	31.3460	17.8063	23.4213
131	131	1	4	89.1878	58.4507	67.1329
132	132	1	4	34.4745	40.1085	20.2150
133	133	1	4	54.1678	5.9200	74.7993
134	134	1	4	27.8932	51.7618	65.8193
135	135	1	4	40.1300	72.6631	24.7519
136	136	1	4	23.5801	5.2853	1.5412
137	137	1	4	47.4242	3.7402	29.3665
138	138	1	4	68.1369	65.1463	32.7439
139	139	1	4	77.9405	43.4441	53.0209
140	140	1	4	35.4587	15.3425	49.9827
141	141	1	4	56.9579	49.1862	20.0033
142	142	1	4	28.0876	52.3400	63.7112
143	143	1	4	36.7890	91.9828	62.6249
144	144	1	4	3.6964	69.3294	91.7861
145	145	1	4	48.5890	1.2940	67.6641
146	146	1	4	35.0929	83.4484	30.5163
147	147	1	4	71.4672	67.7691	77.8583
148	148	1	4	14.4788	61.9827	24.8229
149	149	1	4	28.9074	23.3576	69.2298
150	150	1	4	21.9140	31.8433	33.4337
151	151	1	4	73.1319	78.8169	87.0847
152	152	1	4	91.9729	7.4542	68.8104
153	153	1	4	53.1668	58.1145	65.4685
154	154	1	4	5.9646	18.3911	77.3541
155	155	1	4	59.7623	52.3338	34.3386
156	156	1	4	91.1132	74.3125	11.9018
157	157	1	4	7.6704	35.4257	45.1682
158	158	1	4	8.3873	84.6417	17.2738
159	159	1	4	38.7080	76.2662	63.3433
160	160	1	4	25.5483	17.2565	25.3450
161	161	1	4	65.7145	13.5740	26.6633
162	162	1	4	61.6941	84.6101	70.2291
163	163	1	4	5.6129	66.7295	45.4328
164	164	1	4	23.7886	21.2130	89.8867
165	165	1	4	40.4942	43.4769	30.7576
166	166	1	4	8.6225	61.7222	24.7424
167	167	1	4	40.6778	33.4930	0.8578
168	168	1	4	61.0741	26.1131	78.8333
169	169	1	4	26.6809	82.0909	14.1906
170	170	1	4	29.8867	24.0290	32.7892
171	171	1	4	73.6565	14.2302	45.2003
172	172	1	4	29.5984	44.8350	64.6119
173	173	1	4	74.9682	55.3146	42.0163
174	174	1	4	10.3470	5.1500	14.9942
175	175	1	4	87.5439	22.1361	79.2995
176	176	1	4	60.7641	34.3864	77.8060
177	177	1	4	31.3235	43.4019	71.3476
178	178	1	4	74.4550	18.2004	82.2640
179	179	1	4	79.4109	78.6125	24.1274
180	180	1	4	23.8055	24.3708	67.1750
181	181	1	4	88.6910	11.6871	19.8204
182	182	1	4	90.6682	25.3226	10.0123
183	183	1	4	51.3811	65.5600	47.2631
184	184	1	4	20.9078	31.1619	53.9113
185	185	1	4	51.4034	61.8809	66.9502
186	186	1	4	86.1617	44.1592	89.8345
187	187	1	4	22.4014	79.4935	25.7364
188	188	1	4	9.7499	13.6234	56.2739
189	189	1	4	19.2506	80.3956	29.7332
190	190	1	4	59.1238	34.0641	53.6332
191	191	1	4	71.6153	7.7914	41.1864
192	192	1	4	64.4616	7.4008	19.6700
193	193	1	4	71.6448	1.9628	70.9791
194	194	1	4	73.3610	30.9018	67.1765
195	195	1	4	75.5099	76.4863	52.4776
196	196	1	4	74.8195	21.8372	73.7907
197	197	1	4	50.7009	79.9808	55.7832
198	198	1	4	26.4964	40.3202	17.5941
199	199	1	4	59.2771	90.1298	23.0227
200	200	1	4	72.5291	9.9193	85.4191
201	201	1	4	19.1858	25.8674	88.1715
202	202	1	4	75.5206	72.8974	2.3480
203	203	1	4	14.0824	32.0624	67.1015
204	204	1	4	46.3697	75.1162	38.4036
205	205	1	4	21.1214	88.5263	56.3163
206	206	1	4	30.6971	28.0645	79.2477
207	207	1	4	38.7283	17.7466	91.8342
208	208	1	4	63.5096	9.6406	44.2816
209	209	1	4	9.0515	41.6959	4.4580
210	210	1	4	57.9585	11.1094	55.8159
211	211	1	4	44.4167	24.1746	72.7381
212	212	1	4	10.9908	40.5052	32.0132
213	213	1	4	82.4139	19.2444	58.9253
214	214	1	4	52.0890	38.0590	26.6219
215	215	1	4	31.2020	55.7985	85.9559
216	216	1	4	6.8384	18.3079	22.9974
217	217	1	4	13.4762	36.1658	53.0474
218	218	1	4	55.3314	91.5129	39.3086
219	219	1	4	54.5653	3.3974	34.0666
220	220	1	4	17.3315	30.4653	76.0929
221	221	1	4	71.2569	11.7155	80.5758
222	222	1	4	32.2126	86.5451	20.6060
223	223	1	4	34.5376	46.6912	48.9519
224	224	1	4	37.5810	52.0269	34.4853
225	225	1	4	58.5229	74.1608	67.8803
226	226	1	4	66.1137	76.4612	35.1537
227	227	1	4	0.4501	92.3246	72.0471
228	228	1	4	33.7000	49.0344	72.1997
229	229	1	4	78.7489	20.4591	29.5194
230	230	1	4	86.3584	15.7495	72.5224
231	231	1	4	76.8868	71.7385	38.5828
232	232	1	4	24.9118	25.6559	12.9534
233	233	1	4	20.9376	52.4497	25.4784
234	234	1	4	80.9492	33.2090	63.0898
235	235	1	4	19.5977	44.3589	75.2214
236	236	1	4	51.7806	57.6692	68.2986
237	237	1	4	82.0685	20.5951	28.1642
238	238	1	4	67.0885	18.9536	59.8210
239	239	1	4	10.2675	35.5334	59.9414
240	240	1	4	17.0545	52.6323	42.8080
241	241	1	4	77.1263	5.6128	22.0032
242	242	1	4	9.9607	10.8559	11.4406
243	243	1	4	18.8238	2.9350	24.6930
244	244	1	4	38.2004	19.7462	24.2647
245	245	1	4	79.6382	82.8800	5.3642
246	246	1	4	25.4606	59.4752	16.0044
247	247	1	4	58.5957	78.3414	80.0144
248	248	1	4	65.8213	85.4809	14.5885
249	249	1	4	86.5340	65.7061	19.6966
250	250	1	4	70.0882	32.4432	66.7538
251	251	1	4	92.1942	33.0772	81.4455
252	252	1	4	21.1182	59.6242	15.7467
253	253	1	4	33.9653	10.5101	43.6754
254	254	1	4	26.9523	8.3771	40.0614
255	255	1	4	46.6423	15.9400	92.4315
256	256	1	4	83.2943	61.4205	55.0610
257	257	1	4	75.2899	46.5187	51.7402
258	258	1	4	57.4689	15.5651	27.6871
259	259	1	4	61.2031	67.8190	78.0817
260	260	1	4	6.2680	70.9791	86.9642
261	261	1	4	6.1263	77.6169	54.5679
262	262	1	4	48.7465	39.7338	38.2447
263	263	1	4	34.7505	1.3791	38.0466
264	264	1	4	29.4410	80.4443	72.0254
265	265	1	4	87.3697	78.6990	19.3911
266	266	1	4	64.1986	73.6263	71.3840
267	267	1	4	20.6114	35.9913	91.1876
268	268	1	4	21.0244	82.7870	88.3611
269	269	1	4	46.3849	79.0837	19.6025
270	270	1	4	67.5838	16.7894	69.5166
271	271	1	4	74.3751	61.7364	79.6058
272	272	1	4	89.8855	33.0364	42.8692
273	273	1	4	50.4057	60.4159	76.4454
274	274	1	4	53.0443	30.7208	37.8553
275	275	1	4	3.5279	50.8086	71.5641
276	276	1	4	32.4415	62.4743	56.0854
277	277	1	4	84.9072	76.1813	31.7806
278	278	1	4	66.7255	44.7355	60.1357
279	279	1	4	21.5813	75.4111	8.3412
280	280	1	4	92.0734	37.6021	19.7962
281	281	1	4	34.8659	88.5708	5.1870
282	282	1	4	36.2250	78.1613	43.8479
283	283	1	4	9.9604	81.8178	37.1868
284	284	1	4	59.4157	55.3991	32.2139
285	285	1	4	29.8261	65.4305	33.9099
286	286	1	4	19.2737	30.1241	56.9342
287	287	1	4	21.0536	31.5060	78.8864
288	288	1	4	88.4922	12.8518	21.5527
289	289	1	4	20.7442	40.9044	85.1361
290	290	1	4	82.0764	87.4696	92.3849
291	291	1	4	54.8133	56.0530	32.3161
292	292	1	4	32.1687	59.4436	58.1389
293	293	1	4	15.5982	55.5221	48.4476
294	294	1	4	54.1748	78.8648	30.5089
295	295	1	4	36.9009	59.1017	66.8927
296	296	1	4	2.4678	22.0121	41.9286
297	297	1	4	2.8942	64.6573	14.9850
298	298	1	4	49.9245	69.7023	49.0804
299	299	1	4	33.8747	74.3254	78.6081
300	300	1	4	53.6203	45.1973	54.6728
301	301	1	4	53.7515	69.0019	4.1185
302	302	1	4	27.7694	30.7855	4.2460
303	303	1	4	1.6699	34.1584	10.5307
304	304	1	4	73.1361	15.3284	54.2028
305	305	1	4	76.7500	84.5769	74.1652
306	306	1	4	39.4731	64.9024	37.0819
307	307	1	4	30.8284	25.5970	11.6053
308	308	1	4	75.6666	68.1461	2.1436
309	309	1	4	56.1815	67.5839	68.3600
310	310	1	4	91.2861	4.1188	78.9082
311	311	1	4	58.7813	52.5215	12.6852
312	312	1	4	54.7904	10.6878	37.6054
313	313	1	4	64.6055	55.4954	15.3265
314	314	1	4	8.9224	54.2599	28.8946
315	315	1	4	51.8020	4.7775	33.6784
316	316	1	4	91.1176	58.0258	75.7184
317	317	1	4	22.7912	25.3896	72.2161
318	318	1	4	23.8062	87.3060	77.8055
319	319	1	4	63.7110	22.3452	61.2220
320	320	1	4	57.1070	89.1903	40.9713
321	321	1	4	84.1967	24.4365	49.7875
322	322	1	4	32.5098	29.3869	45.4704
323	323	1	4	73.8388	81.4393	69.9018
324	324	1	4	8.8950	92.0676	78.4113
325	325	1	4	81.7167	69.6494	38.4189
326	326	1	4	61.2240	78.4237	4.7688
327	327	1	4	90.9193	67.5324	81.2686
328	328	1	4	81.9012	27.5117	81.8640
329	329	1	4	82.8370	92.7055	47.6435
330	330	1	4	27.4250	32.9953	28.0383
331	331	1	4	21.5691	20.9310	77.3720
332	332	1	4	57.3903	40.0296	48.1215
333	333	1	4	88.8742	47.0017	26.5643
334	334	1	4	24.3470	49.6580	84.0088
335	335	1	4	74.5290	68.8248	45.1169
336	336	1	4	54.4204	83.3774	19.3390
337	337	1	4	60.2622	84.7159	81.0200
338	338	1	4	74.4511	65.6997	3.4952
339	339	1	4	7.6118	17.3360	37.9533
340	340	1	4	22.6405	17.2089	47.2528
341	341	1	4	35.5450	92.6336	33.8150
342	342	1	4	14.0194	1.6103	60.4966
343	343	1	4	48.2745	81.8816	11.4369
344	344	1	4	67.8305	58.3562	37.5388
345	345	1	4	50.1884	50.3196	43.0821
346	346	1	4	75.5146	33.5142	65.3952
347	347	1	4	33.3162	5.3344	72.7045
348	348	1	4	57.0497	69.6546	50.3569
349	349	1	4	9.0948	26.5669	42.3058
350	350	1	4	20.9544	31.0079	65.5714
351	351	1	4	82.8364	19.1825	70.1946
352	352	1	4	61.2037	11.3308	83.9432
353	353	1	4	49.4999	26.9623	81.8436
354	354	1	4	65.1966	32.3204	62.8780
355	355	1	4	29.6900	62.3960	55.9991
356	356	1	4	81.5616	1.1235	75.3852
357	357	1	4	14.8958	66.4758	9.0328
358	358	1	4	75.8581	33.1762	56.1158
359	359	1	4	54.4021	8.5183	6.3205
360	360	1	4	23.5052	88.5066	91.5191
361	361	1	4	4.9412	78.8769	53.0222
362	362	1	4	21.6691	9.6180	47.9402
363	363	1	4	73.3378	74.3287	27.5995
364	364	1	4	15.5588	77.6089	7.0867
365	365	1	4	52.3486	40.8852	70.1002
366	366	1	4	16.4946	3.3764	70.1955
367	367	1	4	34.6333	49.4651	59.9759
368	368	1	4	85.1888	65.2123	79.0442
369	369	1	4	12.5779	79.4537	32.2600
370	370	1	4	63.4945	2.7161	78.0476
371	371	1	4	6.8940	61.1859	57.6109
372	372	1	4	59.3386	41.4508	32.0263
373	373	1	4	83.7832	56.1720	79.1107
374	374	1	4	18.8029	72.3681	36.2223
375	375	1	4	35.5516	38.4584	42.2164
376	376	1	4	8.4679	53.5029	58.6616
377	377	1	4	21.3700	22.5709	43.6314
378	378	1	4	85.4777	88.6787	62.8905
379	379	1	4	32.1058	78.0271	91.3746
380	380	1	4	39.1978	9.2348	61.7610
381	381	1	4	78.9273	72.3905	19.0285
382	382	1	4	22.5490	10.2761	20.3834
383	383	1	4	74.5829	1.9150	40.9494
384	384	1	4	28.7104	45.3320	60.4035
385	385	1	4	88.9100	50.0493	55.0118
386	386	1	4	15.2131	24.5020	49.7321
387	387	1	4	36.0967	79.0155	81.7043
388	388	1	4	27.9433	30.8528	70.4666
389	389	1	4	88.1878	10.0033	78.1938
390	390	1	4	6.9298	62.4689	69.4829
391	391	1	4	14.5923	40.1596	84.9495
392	392	1	4	11.8520	36.9129	1.5653
393	393	1	4	49.1649	91.2823	49.5494
394	394	1	4	54.3172	71.3171	21.8680
395	395	1	4	67.6201	44.2775	3.0822
396	396	1	4	75.9693	89.8387	41.9947
397	397	1	4	44.1705	63.8467	18.4669
398	398	1	4	75.5380	8.7712	35.5906
399	399	1	4	73.7176	17.6776	91.6396
400	400	1	4	59.6301	9.2200	40.2077
401	401	1	4	24.8987	78.2301	35.3998
402	402	1	4	59.5517	38.0827	75.8688
403	403	1	4	59.1298	35.6587	77.6061
404	404	1	4	37.3836	35.1957	15.1031
405	405	1	4	73.3317	19.5914	76.0309
406	406	1	4	47.8683	42.0508	75.8160
407	407	1	4	80.6570	37.5879	47.9683
408	408	1	4	47.4228	10.8974	22.5167
409	409	1	4	49.0108	11.5563	77.7810
410	410	1	4	23.1563	25.5697	15.3197
411	411	1	4	25.9490	91.5268	0.6601
412	412	1	4	25.6838	65.3079	9.5257
413	413	1	4	38.9866	2.2535	59.8539
414	414	1	4	10.5240	50.8826	28.6042
415	415	1	4	31.2159	26.4281	15.0812
416	416	1	4	47.0074	55.3495	86.1239
417	417	1	4	8.4921	68.5146	34.5602
418	418	1	4	74.0896	33.9431	24.3271
419	419	1	4	34.5254	30.9733	29.1358
420	420	1	4	13.8292	51.5605	86.1081
421	421	1	4	21.1391	27.2267	57.6144
422	422	1	4	86.7308	63.6978	85.3030
423	423	1	4	83.6667	81.5493	53.2359
424	424	1	4	40.6691	13.5430	48.4479
425	425	1	4	42.6062	47.3462	81.7785
426	426	1	4	42.5205	30.5729	63.9112
427	427	1	4	32.3494	31.4699	35.8537
428	428	1	4	81.9642	21.2439	64.6952
429	429	1	4	21.7433	79.4272	26.2846
430	430	1	4	27.9778	65.7549	4.9613
431	431	1	4	54.4073	85.1445	32.3129
432	432	1	4	61.8771	75.4123	57.3022
433	433	1	4	49.6156	21.1874	57.5737
434	434	1	4	85.6048	15.7016	34.2279
435	435	1	4	6.7921	23.1725	87.5070
436	436	1	4	35.2538	6.8282	0.1273
437	437	1	4	67.6079	14.5292	47.0576
438	438	1	4	44.4798	39.1573	51.5222
439	439	1	4	47.3699	56.2391	39.2645
440	440	1	4	91.1560	31.3002	73.9337
441	441	1	4	24.7505	43.8483	72.5601
442	442	1	4	77.9571	55.0631	5.4237
443	443	1	4	69.7878	19.2238	90.1116
444	444	1	4	26.0417	45.8999	3.1661
445	445	1	4	46.8783	30.2870	83.1435
446	446	1	4	67.9062	59.7164	56.6989
447	447	1	4	58.1893	2.7554	3.9465
448	448	1	4	46.5197	91.2035	1.2149