# data file for 2000 SiO2 precursors with porosity capabilities 
-4 98 xlo xhi
-4 98 ylo yhi
-4 98 zlo zhi

6600 atoms
0 bonds
0 angles
0 dihedrals

3 atom types
0 bond types
0 angle types
93 dihedral types

Masses

	1	28
	2	16
	3	12


Dihedral Coeffs

	1	opls	0.3750	-0.2000	0.6250	-0.1000
	2	opls	0.0179	-0.0075	0.0613	-0.0025
	3	opls	0.0169	-0.0034	0.0596	-0.0029
	4	opls	0.0061	-0.0064	0.0680	-0.0032
	5	opls	5.1866	-0.7573	0.1955	-0.0484
	6	opls	0.0576	-0.0276	0.2311	-0.0588
	7	opls	-0.0286	-0.0002	0.1981	0.0137
	8	opls	0.0956	-0.0347	0.1311	0.0000
	9	opls	0.1046	-0.0471	0.1689	-0.0028
	10	opls	0.0838	-0.0315	0.1378	0.0019
	11	opls	0.8070	-0.1106	0.3748	0.0532
	12	opls	-0.6350	0.6467	1.1307	0.3021
	13	opls	0.1107	-0.0504	0.1594	-0.0041
	14	opls	0.0906	-0.0352	0.1327	-0.0002
	15	class2	0.0035	180.0000	0.0027	180.0000	0.0293	0.0000
	16	class2	0.0000	0.0000	0.0107	180.0000	0.0000	0.0000
	17	class2	5.5263	0.0000	0.0530	-180.0000	-0.4549	0.0000
	18	class2	-0.1743	109.1530	0.3162	-21.2130	0.3766	175.7110
	19	class2	0.2604	171.4810	0.3939	21.0160	-0.3950	-2.2800
	20	class2	0.2017	161.8610	0.5048	-32.1150	-0.4248	-17.8790
	21	class2	-0.3007	39.6560	0.3059	58.2670	0.5730	136.8990
	22	opls	0.0865	-0.0347	0.1369	0.0009
	23	opls	0.0260	-0.0152	0.0313	-0.0022
	24	class2	-0.0021	180.0000	0.0068	-180.0000	0.0249	180.0000
	25	class2	4.5288	-0.6922	0.0593	51.2299	-0.2849	1.8864
	26	class2	4.7117	-0.4973	0.0435	52.0125	-0.2714	1.4150
	27	class2	0.8503	40.1737	-0.1729	13.8124	0.1254	35.6974
	28	class2	0.7650	125.8283	0.2084	70.9850	-0.2223	53.7952
	29	class2	2.3416	-0.3794	-1.0343	-7.6031	0.2588	28.8160
	30	class2	0.2934	193.2417	0.5263	-11.9147	0.5367	3.4434
	31	class2	-0.3151	71.1896	0.7877	71.3081	0.3381	77.8020
	32	class2	0.3951	169.0500	0.5022	178.8020	0.0764	-5.1270
	33	class2	10.3083	0.4429	-1.4613	3.3498	-0.1841	-12.1460
	34	class2	-0.4315	-364.9834	0.9677	2.8426	0.4723	3.5497
	35	class2	6.2855	-2.0981	0.2675	-15.2695	-0.4898	-10.1079
	36	class2	4.9462	179.8800	-1.0263	-0.8136	-0.0716	-7.8033
	37	class2	2.6998	-179.9669	-0.4484	0.7193	0.0104	-0.6393
	38	class2	1.8296	0.0001	-0.4451	-719.9997	0.1002	360.0002
	39	class2	0.0080	-180.3242	3.2482	0.0006	-1.0463	0.0008
	40	class2	2.8410	-179.3710	-0.5109	5.3337	0.0303	-113.8039
	41	class2	7.6688	0.0005	-0.5919	0.0007	-0.0862	0.0020
	42	class2	6.3460	-0.3509	0.2224	10.0512	-0.3425	2.4027
	43	class2	5.0792	180.1606	-1.0138	1.1164	-0.0723	9.8006
	44	class2	-0.4257	-358.8127	0.8587	-0.6041	0.4727	-1.6051
	45	class2	-0.4508	-360.0038	0.9913	0.0015	0.5017	0.0020
	46	class2	-0.4919	-359.9981	1.0041	-0.0026	0.5645	-0.0034
	47	class2	1.7647	-20.8475	0.0678	159.1707	-0.1965	-45.8413
	48	class2	3.0848	-3.8071	1.7944	6.9829	-0.7375	7.1513
	49	class2	7.6697	-2.5235	0.0050	132.1655	-0.4974	-7.1371
	50	class2	-0.3693	19.0216	0.9139	-20.9413	0.3698	-28.5713
	51	class2	6.2877	0.0002	0.0062	179.7813	-0.2226	0.0006
	52	class2	-0.5075	-359.9967	1.0392	-0.0032	0.5761	-0.0030
	53	class2	5.6305	0.3752	0.4331	-365.9955	-0.3846	-3.0171
	54	class2	-0.5053	4.4285	1.0130	-3.1775	0.5782	-4.2238
	55	class2	7.9597	-0.2710	0.0333	89.8772	-0.4914	0.9408
	56	class2	3.8790	-184.2933	-1.2072	-17.2079	0.3490	147.2990
	57	class2	-0.4182	-364.9790	0.8808	2.9750	0.4528	3.8338
	58	class2	2.0839	-180.4693	-0.1593	-9.3972	0.0180	47.0579
	59	class2	1.7381	0.1429	-0.4096	-358.8383	0.0660	8.7887
	60	class2	6.7533	-2.0243	-1.9530	-1.4807	0.0580	99.7790
	61	class2	-0.9140	202.9373	1.2977	-32.1869	0.8765	155.8002
	62	class2	1.8710	223.1544	-0.3706	87.9349	-0.0495	365.1257
	63	class2	3.0707	-1.2185	0.2774	65.9386	-0.7059	15.0545
	64	class2	2.9283	-15.0151	-1.1277	276.2944	0.6598	228.3612
	65	class2	1.8307	-222.5725	-0.4268	-90.0072	0.0828	-558.4135
	66	class2	9.5372	0.9773	-3.5352	2.9422	0.4581	370.8671
	67	class2	1.9510	-131.6122	-0.5165	90.0285	-0.0456	-337.9184
	68	class2	1.8938	582.4854	-0.4080	76.6182	-0.0919	713.9953
	69	class2	1.9140	-942.6125	-0.4268	-77.9410	-0.0803	4.4302
	70	class2	1.9279	-227.9388	-0.5723	-87.6316	0.0604	500.6796
	71	class2	1.5133	0.2833	-0.5533	1.0617	0.0803	4.7019
	72	class2	2.4022	-179.9998	-0.2712	-0.0017	-0.0121	-0.0682
	73	class2	2.2298	-180.4677	-0.1342	-15.8914	0.0309	37.6600
	74	class2	2.2890	0.0000	-0.4075	0.0008	0.0863	0.0157
	75	class2	8.5169	0.0003	-1.9922	0.0002	0.2309	-0.0030
	76	class2	3.6060	180.0178	-0.4492	0.2302	-0.0193	2.4646
	77	class2	5.9686	0.0005	-0.9737	0.0009	0.0460	-0.0033
	78	class2	9.0287	0.0003	-2.3777	0.0007	0.3567	360.0008
	79	class2	3.6724	179.7356	-0.5816	-2.9735	0.1224	163.9270
	80	class2	5.7865	0.0004	-0.9491	0.0009	0.0727	360.0006
	81	class2	8.9280	0.0005	-2.2503	0.0009	0.3143	0.0009
	82	class2	4.4731	180.1046	0.6418	180.9413	-0.7977	3.9569
	83	class2	3.1704	179.5199	0.1469	-190.0902	-0.2442	209.1656
	84	class2	3.6009	-178.5417	-0.7071	12.6466	0.2241	-142.7069
	85	class2	2.4979	-179.8091	-0.2606	3.0417	-0.0092	51.9182
	86	class2	6.3427	0.0005	-0.8170	0.0013	-0.0580	-0.0059
	87	class2	2.5345	-180.0001	-0.2828	-0.0009	-0.0147	-0.0958
	88	class2	6.2688	0.0003	-0.8322	-0.0001	-0.0521	0.0055
	89	class2	6.7857	0.2910	-0.9941	1.7588	0.0057	127.6178
	90	opls	0.0577	0.0047	0.0576	-0.0524
	91	class2	3.2021	-179.8357	-0.2798	8.8830	0.0369	-89.1100
	92	opls	0.0576	0.0022	0.0563	-0.0486
	93	class2	3.1576	-180.3262	-0.2700	-1.2677	0.0057	52.3925

MiddleBondTorsion Coeffs

	1	opls
	2	opls
	3	opls
	4	opls
	5	opls
	6	opls
	7	opls
	8	opls
	9	opls
	10	opls
	11	opls
	12	opls
	13	opls
	14	opls
	15	class2	0	0	0	0
	16	class2	0	0	0	0
	17	class2	0	0	0	0
	18	class2	0	0	0	0
	19	class2	0	0	0	0
	20	class2	0	0	0	0
	21	class2	0	0	0	0
	22	opls
	23	opls
	24	class2	0	0	0	0
	25	class2	0	0	0	0
	26	class2	0	0	0	0
	27	class2	0	0	0	0
	28	class2	0	0	0	0
	29	class2	0	0	0	0
	30	class2	0	0	0	0
	31	class2	0	0	0	0
	32	class2	0	0	0	0
	33	class2	0	0	0	0
	34	class2	0	0	0	0
	35	class2	0	0	0	0
	36	class2	0	0	0	0
	37	class2	0	0	0	0
	38	class2	0	0	0	0
	39	class2	0	0	0	0
	40	class2	0	0	0	0
	41	class2	0	0	0	0
	42	class2	0	0	0	0
	43	class2	0	0	0	0
	44	class2	0	0	0	0
	45	class2	0	0	0	0
	46	class2	0	0	0	0
	47	class2	0	0	0	0
	48	class2	0	0	0	0
	49	class2	0	0	0	0
	50	class2	0	0	0	0
	51	class2	0	0	0	0
	52	class2	0	0	0	0
	53	class2	0	0	0	0
	54	class2	0	0	0	0
	55	class2	0	0	0	0
	56	class2	0	0	0	0
	57	class2	0	0	0	0
	58	class2	0	0	0	0
	59	class2	0	0	0	0
	60	class2	0	0	0	0
	61	class2	0	0	0	0
	62	class2	0	0	0	0
	63	class2	0	0	0	0
	64	class2	0	0	0	0
	65	class2	0	0	0	0
	66	class2	0	0	0	0
	67	class2	0	0	0	0
	68	class2	0	0	0	0
	69	class2	0	0	0	0
	70	class2	0	0	0	0
	71	class2	0	0	0	0
	72	class2	0	0	0	0
	73	class2	0	0	0	0
	74	class2	0	0	0	0
	75	class2	0	0	0	0
	76	class2	0	0	0	0
	77	class2	0	0	0	0
	78	class2	0	0	0	0
	79	class2	0	0	0	0
	80	class2	0	0	0	0
	81	class2	0	0	0	0
	82	class2	0	0	0	0
	83	class2	0	0	0	0
	84	class2	0	0	0	0
	85	class2	0	0	0	0
	86	class2	0	0	0	0
	87	class2	0	0	0	0
	88	class2	0	0	0	0
	89	class2	0	0	0	0
	90	opls
	91	class2	0	0	0	0
	92	opls
	93	class2	0	0	0	0

EndBondTorsion Coeffs

	1	opls
	2	opls
	3	opls
	4	opls
	5	opls
	6	opls
	7	opls
	8	opls
	9	opls
	10	opls
	11	opls
	12	opls
	13	opls
	14	opls
	15	class2	0	0	0	0	0	0	0	0
	16	class2	0	0	0	0	0	0	0	0
	17	class2	0	0	0	0	0	0	0	0
	18	class2	0	0	0	0	0	0	0	0
	19	class2	0	0	0	0	0	0	0	0
	20	class2	0	0	0	0	0	0	0	0
	21	class2	0	0	0	0	0	0	0	0
	22	opls
	23	opls
	24	class2	0	0	0	0	0	0	0	0
	25	class2	0	0	0	0	0	0	0	0
	26	class2	0	0	0	0	0	0	0	0
	27	class2	0	0	0	0	0	0	0	0
	28	class2	0	0	0	0	0	0	0	0
	29	class2	0	0	0	0	0	0	0	0
	30	class2	0	0	0	0	0	0	0	0
	31	class2	0	0	0	0	0	0	0	0
	32	class2	0	0	0	0	0	0	0	0
	33	class2	0	0	0	0	0	0	0	0
	34	class2	0	0	0	0	0	0	0	0
	35	class2	0	0	0	0	0	0	0	0
	36	class2	0	0	0	0	0	0	0	0
	37	class2	0	0	0	0	0	0	0	0
	38	class2	0	0	0	0	0	0	0	0
	39	class2	0	0	0	0	0	0	0	0
	40	class2	0	0	0	0	0	0	0	0
	41	class2	0	0	0	0	0	0	0	0
	42	class2	0	0	0	0	0	0	0	0
	43	class2	0	0	0	0	0	0	0	0
	44	class2	0	0	0	0	0	0	0	0
	45	class2	0	0	0	0	0	0	0	0
	46	class2	0	0	0	0	0	0	0	0
	47	class2	0	0	0	0	0	0	0	0
	48	class2	0	0	0	0	0	0	0	0
	49	class2	0	0	0	0	0	0	0	0
	50	class2	0	0	0	0	0	0	0	0
	51	class2	0	0	0	0	0	0	0	0
	52	class2	0	0	0	0	0	0	0	0
	53	class2	0	0	0	0	0	0	0	0
	54	class2	0	0	0	0	0	0	0	0
	55	class2	0	0	0	0	0	0	0	0
	56	class2	0	0	0	0	0	0	0	0
	57	class2	0	0	0	0	0	0	0	0
	58	class2	0	0	0	0	0	0	0	0
	59	class2	0	0	0	0	0	0	0	0
	60	class2	0	0	0	0	0	0	0	0
	61	class2	0	0	0	0	0	0	0	0
	62	class2	0	0	0	0	0	0	0	0
	63	class2	0	0	0	0	0	0	0	0
	64	class2	0	0	0	0	0	0	0	0
	65	class2	0	0	0	0	0	0	0	0
	66	class2	0	0	0	0	0	0	0	0
	67	class2	0	0	0	0	0	0	0	0
	68	class2	0	0	0	0	0	0	0	0
	69	class2	0	0	0	0	0	0	0	0
	70	class2	0	0	0	0	0	0	0	0
	71	class2	0	0	0	0	0	0	0	0
	72	class2	0	0	0	0	0	0	0	0
	73	class2	0	0	0	0	0	0	0	0
	74	class2	0	0	0	0	0	0	0	0
	75	class2	0	0	0	0	0	0	0	0
	76	class2	0	0	0	0	0	0	0	0
	77	class2	0	0	0	0	0	0	0	0
	78	class2	0	0	0	0	0	0	0	0
	79	class2	0	0	0	0	0	0	0	0
	80	class2	0	0	0	0	0	0	0	0
	81	class2	0	0	0	0	0	0	0	0
	82	class2	0	0	0	0	0	0	0	0
	83	class2	0	0	0	0	0	0	0	0
	84	class2	0	0	0	0	0	0	0	0
	85	class2	0	0	0	0	0	0	0	0
	86	class2	0	0	0	0	0	0	0	0
	87	class2	0	0	0	0	0	0	0	0
	88	class2	0	0	0	0	0	0	0	0
	89	class2	0	0	0	0	0	0	0	0
	90	opls
	91	class2	0	0	0	0	0	0	0	0
	92	opls
	93	class2	0	0	0	0	0	0	0	0

AngleTorsion Coeffs

	1	opls
	2	opls
	3	opls
	4	opls
	5	opls
	6	opls
	7	opls
	8	opls
	9	opls
	10	opls
	11	opls
	12	opls
	13	opls
	14	opls
	15	class2	0	0	0	0	0	0	0	0
	16	class2	0	0	0	0	0	0	0	0
	17	class2	0	0	0	0	0	0	0	0
	18	class2	0	0	0	0	0	0	0	0
	19	class2	0	0	0	0	0	0	0	0
	20	class2	0	0	0	0	0	0	0	0
	21	class2	0	0	0	0	0	0	0	0
	22	opls
	23	opls
	24	class2	0	0	0	0	0	0	0	0
	25	class2	0	0	0	0	0	0	0	0
	26	class2	0	0	0	0	0	0	0	0
	27	class2	0	0	0	0	0	0	0	0
	28	class2	0	0	0	0	0	0	0	0
	29	class2	0	0	0	0	0	0	0	0
	30	class2	0	0	0	0	0	0	0	0
	31	class2	0	0	0	0	0	0	0	0
	32	class2	0	0	0	0	0	0	0	0
	33	class2	0	0	0	0	0	0	0	0
	34	class2	0	0	0	0	0	0	0	0
	35	class2	0	0	0	0	0	0	0	0
	36	class2	0	0	0	0	0	0	0	0
	37	class2	0	0	0	0	0	0	0	0
	38	class2	0	0	0	0	0	0	0	0
	39	class2	0	0	0	0	0	0	0	0
	40	class2	0	0	0	0	0	0	0	0
	41	class2	0	0	0	0	0	0	0	0
	42	class2	0	0	0	0	0	0	0	0
	43	class2	0	0	0	0	0	0	0	0
	44	class2	0	0	0	0	0	0	0	0
	45	class2	0	0	0	0	0	0	0	0
	46	class2	0	0	0	0	0	0	0	0
	47	class2	0	0	0	0	0	0	0	0
	48	class2	0	0	0	0	0	0	0	0
	49	class2	0	0	0	0	0	0	0	0
	50	class2	0	0	0	0	0	0	0	0
	51	class2	0	0	0	0	0	0	0	0
	52	class2	0	0	0	0	0	0	0	0
	53	class2	0	0	0	0	0	0	0	0
	54	class2	0	0	0	0	0	0	0	0
	55	class2	0	0	0	0	0	0	0	0
	56	class2	0	0	0	0	0	0	0	0
	57	class2	0	0	0	0	0	0	0	0
	58	class2	0	0	0	0	0	0	0	0
	59	class2	0	0	0	0	0	0	0	0
	60	class2	0	0	0	0	0	0	0	0
	61	class2	0	0	0	0	0	0	0	0
	62	class2	0	0	0	0	0	0	0	0
	63	class2	0	0	0	0	0	0	0	0
	64	class2	0	0	0	0	0	0	0	0
	65	class2	0	0	0	0	0	0	0	0
	66	class2	0	0	0	0	0	0	0	0
	67	class2	0	0	0	0	0	0	0	0
	68	class2	0	0	0	0	0	0	0	0
	69	class2	0	0	0	0	0	0	0	0
	70	class2	0	0	0	0	0	0	0	0
	71	class2	0	0	0	0	0	0	0	0
	72	class2	0	0	0	0	0	0	0	0
	73	class2	0	0	0	0	0	0	0	0
	74	class2	0	0	0	0	0	0	0	0
	75	class2	0	0	0	0	0	0	0	0
	76	class2	0	0	0	0	0	0	0	0
	77	class2	0	0	0	0	0	0	0	0
	78	class2	0	0	0	0	0	0	0	0
	79	class2	0	0	0	0	0	0	0	0
	80	class2	0	0	0	0	0	0	0	0
	81	class2	0	0	0	0	0	0	0	0
	82	class2	0	0	0	0	0	0	0	0
	83	class2	0	0	0	0	0	0	0	0
	84	class2	0	0	0	0	0	0	0	0
	85	class2	0	0	0	0	0	0	0	0
	86	class2	0	0	0	0	0	0	0	0
	87	class2	0	0	0	0	0	0	0	0
	88	class2	0	0	0	0	0	0	0	0
	89	class2	0	0	0	0	0	0	0	0
	90	opls
	91	class2	0	0	0	0	0	0	0	0
	92	opls
	93	class2	0	0	0	0	0	0	0	0

AngleAngleTorsion Coeffs

	1	opls
	2	opls
	3	opls
	4	opls
	5	opls
	6	opls
	7	opls
	8	opls
	9	opls
	10	opls
	11	opls
	12	opls
	13	opls
	14	opls
	15	class2	0	0	0
	16	class2	0	0	0
	17	class2	0	0	0
	18	class2	0	0	0
	19	class2	0	0	0
	20	class2	0	0	0
	21	class2	0	0	0
	22	opls
	23	opls
	24	class2	0	0	0
	25	class2	0	0	0
	26	class2	0	0	0
	27	class2	0	0	0
	28	class2	0	0	0
	29	class2	0	0	0
	30	class2	0	0	0
	31	class2	0	0	0
	32	class2	0	0	0
	33	class2	0	0	0
	34	class2	0	0	0
	35	class2	0	0	0
	36	class2	0	0	0
	37	class2	0	0	0
	38	class2	0	0	0
	39	class2	0	0	0
	40	class2	0	0	0
	41	class2	0	0	0
	42	class2	0	0	0
	43	class2	0	0	0
	44	class2	0	0	0
	45	class2	0	0	0
	46	class2	0	0	0
	47	class2	0	0	0
	48	class2	0	0	0
	49	class2	0	0	0
	50	class2	0	0	0
	51	class2	0	0	0
	52	class2	0	0	0
	53	class2	0	0	0
	54	class2	0	0	0
	55	class2	0	0	0
	56	class2	0	0	0
	57	class2	0	0	0
	58	class2	0	0	0
	59	class2	0	0	0
	60	class2	0	0	0
	61	class2	0	0	0
	62	class2	0	0	0
	63	class2	0	0	0
	64	class2	0	0	0
	65	class2	0	0	0
	66	class2	0	0	0
	67	class2	0	0	0
	68	class2	0	0	0
	69	class2	0	0	0
	70	class2	0	0	0
	71	class2	0	0	0
	72	class2	0	0	0
	73	class2	0	0	0
	74	class2	0	0	0
	75	class2	0	0	0
	76	class2	0	0	0
	77	class2	0	0	0
	78	class2	0	0	0
	79	class2	0	0	0
	80	class2	0	0	0
	81	class2	0	0	0
	82	class2	0	0	0
	83	class2	0	0	0
	84	class2	0	0	0
	85	class2	0	0	0
	86	class2	0	0	0
	87	class2	0	0	0
	88	class2	0	0	0
	89	class2	0	0	0
	90	opls
	91	class2	0	0	0
	92	opls
	93	class2	0	0	0

BondBond13 Coeffs

	1	opls
	2	opls
	3	opls
	4	opls
	5	opls
	6	opls
	7	opls
	8	opls
	9	opls
	10	opls
	11	opls
	12	opls
	13	opls
	14	opls
	15	class2	0	0	0
	16	class2	0	0	0
	17	class2	0	0	0
	18	class2	0	0	0
	19	class2	0	0	0
	20	class2	0	0	0
	21	class2	0	0	0
	22	opls
	23	opls
	24	class2	0	0	0
	25	class2	0	0	0
	26	class2	0	0	0
	27	class2	0	0	0
	28	class2	0	0	0
	29	class2	0	0	0
	30	class2	0	0	0
	31	class2	0	0	0
	32	class2	0	0	0
	33	class2	0	0	0
	34	class2	0	0	0
	35	class2	0	0	0
	36	class2	0	0	0
	37	class2	0	0	0
	38	class2	0	0	0
	39	class2	0	0	0
	40	class2	0	0	0
	41	class2	0	0	0
	42	class2	0	0	0
	43	class2	0	0	0
	44	class2	0	0	0
	45	class2	0	0	0
	46	class2	0	0	0
	47	class2	0	0	0
	48	class2	0	0	0
	49	class2	0	0	0
	50	class2	0	0	0
	51	class2	0	0	0
	52	class2	0	0	0
	53	class2	0	0	0
	54	class2	0	0	0
	55	class2	0	0	0
	56	class2	0	0	0
	57	class2	0	0	0
	58	class2	0	0	0
	59	class2	0	0	0
	60	class2	0	0	0
	61	class2	0	0	0
	62	class2	0	0	0
	63	class2	0	0	0
	64	class2	0	0	0
	65	class2	0	0	0
	66	class2	0	0	0
	67	class2	0	0	0
	68	class2	0	0	0
	69	class2	0	0	0
	70	class2	0	0	0
	71	class2	0	0	0
	72	class2	0	0	0
	73	class2	0	0	0
	74	class2	0	0	0
	75	class2	0	0	0
	76	class2	0	0	0
	77	class2	0	0	0
	78	class2	0	0	0
	79	class2	0	0	0
	80	class2	0	0	0
	81	class2	0	0	0
	82	class2	0	0	0
	83	class2	0	0	0
	84	class2	0	0	0
	85	class2	0	0	0
	86	class2	0	0	0
	87	class2	0	0	0
	88	class2	0	0	0
	89	class2	0	0	0
	90	opls
	91	class2	0	0	0
	92	opls
	93	class2	0	0	0

Atoms

1	1	1	4	67.1988	83.2731	33.6763
2	2	1	4	38.8664	2.1460	91.4340
3	3	1	4	90.0620	57.0698	24.2023
4	4	1	4	47.0634	18.4139	25.4325
5	5	1	4	81.8379	83.8834	73.2428
6	6	1	4	87.7747	3.8913	47.6918
7	7	1	4	47.7858	51.8979	20.3938
8	8	1	4	45.7417	84.2093	74.6644
9	9	1	4	60.7323	51.7536	25.5576
10	10	1	4	73.3349	87.3519	77.4207
11	11	1	4	71.6096	35.6802	43.6546
12	12	1	4	36.4216	24.5588	5.0338
13	13	1	4	25.1198	52.5571	14.4260
14	14	1	4	22.7226	34.9642	82.3624
15	15	1	4	59.7016	6.3193	28.0072
16	16	1	4	66.4628	83.3185	12.1069
17	17	1	4	9.7250	64.2363	18.4363
18	18	1	4	25.5870	77.0391	55.5829
19	19	1	4	63.6142	4.0142	77.5736
20	20	1	4	64.9968	9.9265	12.6389
21	21	1	4	49.3029	3.8893	10.9163
22	22	1	4	84.3697	76.3790	45.6042
23	23	1	4	9.3186	74.6956	20.1043
24	24	1	4	21.7761	28.8620	50.4778
25	25	1	4	88.8496	25.8823	20.2728
26	26	1	4	7.2560	12.7065	72.2233
27	27	1	4	4.5467	76.0984	88.3586
28	28	1	4	10.2749	64.0544	2.9784
29	29	1	4	44.7674	90.4097	31.5484
30	30	1	4	19.7891	1.1123	78.2753
31	31	1	4	28.2852	75.5185	27.0873
32	32	1	4	36.1909	51.3083	78.9680
33	33	1	4	77.7731	11.2336	28.0111
34	34	1	4	0.3329	66.8158	21.0258
35	35	1	4	69.6627	78.3016	18.6926
36	36	1	4	31.1887	91.8142	63.1426
37	37	1	4	81.6882	9.1658	44.6755
38	38	1	4	79.4538	57.6531	11.0513
39	39	1	4	1.4495	11.8320	87.0223
40	40	1	4	56.5654	4.7196	0.8500
41	41	1	4	38.0772	88.1322	80.2057
42	42	1	4	43.5348	30.3614	16.0904
43	43	1	4	84.2181	27.1280	54.8136
44	44	1	4	25.1164	16.1707	87.0743
45	45	1	4	13.8888	44.9298	0.5122
46	46	1	4	91.5239	80.8183	53.6884
47	47	1	4	14.8126	4.2190	29.8531
48	48	1	4	46.9008	67.1102	48.4384
49	49	1	4	83.1956	57.2042	90.0203
50	50	1	4	79.2093	67.7092	61.2379
51	51	1	4	2.0242	78.8910	82.5906
52	52	1	4	12.0500	82.6528	14.8925
53	53	1	4	43.5344	21.0879	33.5695
54	54	1	4	10.5396	64.3371	60.6058
55	55	1	4	22.6772	65.3689	87.9665
56	56	1	4	27.9618	51.5323	91.4683
57	57	1	4	13.1063	77.1935	84.1701
58	58	1	4	2.2410	57.2667	90.9320
59	59	1	4	46.4400	55.8282	63.9689
60	60	1	4	92.0553	52.2455	9.9875
61	61	1	4	59.8018	83.9933	25.3757
62	62	1	4	80.6507	19.8041	88.6443
63	63	1	4	76.9807	25.8443	9.0822
64	64	1	4	80.7243	39.0487	72.7283
65	65	1	4	32.3793	74.6514	8.4195
66	66	1	4	69.8995	64.9132	9.0771
67	67	1	4	78.8477	18.1938	90.1807
68	68	1	4	66.3441	12.3731	52.6793
69	69	1	4	36.4368	82.2116	17.0303
70	70	1	4	31.0210	48.2966	57.8522
71	71	1	4	5.9737	62.8990	8.0997
72	72	1	4	43.0676	47.6811	43.4590
73	73	1	4	80.7275	91.6721	56.0259
74	74	1	4	1.8219	81.6084	41.8692
75	75	1	4	91.7531	17.9476	51.7461
76	76	1	4	7.2047	10.8786	55.8340
77	77	1	4	82.4186	89.9586	24.6604
78	78	1	4	81.4051	85.5634	0.3822
79	79	1	4	73.9625	25.4691	25.0055
80	80	1	4	22.9095	84.6869	10.8555
81	81	1	4	72.7909	5.1078	7.9529
82	82	1	4	20.5328	76.0143	14.1799
83	83	1	4	50.4302	56.0292	5.2505
84	84	1	4	28.3661	66.0655	43.0532
85	85	1	4	85.4039	5.7080	87.1867
86	86	1	4	29.1473	22.5080	52.1500
87	87	1	4	72.6158	11.9532	6.5183
88	88	1	4	5.7734	89.9287	57.6538
89	89	1	4	61.1924	1.0158	32.9549
90	90	1	4	48.1627	43.3326	92.2442
91	91	1	4	47.8872	47.6318	83.4806
92	92	1	4	90.5688	72.3545	46.8499
93	93	1	4	15.6703	84.1326	12.1456
94	94	1	4	37.1479	27.4816	13.3112
95	95	1	4	67.9915	76.2214	13.7969
96	96	1	4	0.9580	85.4523	92.2249
97	97	1	4	26.8050	80.0504	8.2089
98	98	1	4	20.2915	74.1713	89.3484
99	99	1	4	59.8812	39.2439	41.8075
100	100	1	4	61.3564	58.0417	7.1785
101	101	1	4	19.1204	14.9312	6.8406
102	102	1	4	82.3615	26.7569	5.1712
103	103	1	4	42.9775	30.4764	0.6338
104	104	1	4	60.0224	77.3151	12.7694
105	105	1	4	28.5735	55.8744	28.3297
106	106	1	4	0.3396	89.5326	73.8926
107	107	1	4	2.0213	83.1016	30.1049
108	108	1	4	69.6357	31.8456	52.6273
109	109	1	4	84.3071	91.0277	30.7763
110	110	1	4	53.5792	85.5245	88.1587
111	111	1	4	42.0971	57.7552	9.3813
112	112	1	4	4.2038	73.7015	47.3422
113	113	1	4	18.9316	13.7601	23.6563
114	114	1	4	50.8160	8.5853	3.8684
115	115	1	4	10.8405	80.8493	44.4565
116	116	1	4	29.3018	92.7496	41.4208
117	117	1	4	36.9387	45.7416	53.0763
118	118	1	4	60.3124	21.8201	29.4803
119	119	1	4	2.6363	26.3795	81.4736
120	120	1	4	78.6786	70.4087	9.4623
121	121	1	4	23.7228	87.2461	31.0051
122	122	1	4	73.9640	48.5936	53.6528
123	123	1	4	14.2346	49.5955	68.7016
124	124	1	4	91.4109	20.1802	59.4759
125	125	1	4	44.3788	45.3619	68.2524
126	126	1	4	1.2143	32.8981	91.1876
127	127	1	4	49.2292	50.8462	54.6701
128	128	1	4	87.7365	70.3980	86.2924
129	129	1	4	92.0512	21.7800	43.8167
130	130	1	4	21.8669	38.1479	72.5017
131	131	1	4	71.7255	82.5819	90.2420
132	132	1	4	75.4132	68.6843	64.2225
133	133	1	4	38.4066	52.0226	62.2366
134	134	1	4	41.4335	78.6900	86.0000
135	135	1	4	76.4941	81.4890	43.5425
136	136	1	4	24.5910	50.5473	29.1191
137	137	1	4	69.5046	42.7975	45.3822
138	138	1	4	22.6623	78.8346	62.1538
139	139	1	4	66.4747	36.0505	50.8439
140	140	1	4	76.5183	53.7491	80.9928
141	141	1	4	33.5678	71.2555	3.4245
142	142	1	4	53.2070	26.5600	72.2724
143	143	1	4	91.7578	22.5947	70.7328
144	144	1	4	41.1945	88.4522	60.5779
145	145	1	4	57.6512	13.9505	32.1038
146	146	1	4	16.7646	51.6004	47.6709
147	147	1	4	37.4998	52.0250	84.2438
148	148	1	4	61.3985	5.5294	16.5183
149	149	1	4	73.8313	75.9919	4.2022
150	150	1	4	15.6384	2.1072	85.2300
151	151	1	4	83.2830	77.8754	6.5656
152	152	1	4	65.3446	56.6962	49.6552
153	153	1	4	64.2005	29.1886	18.6240
154	154	1	4	71.4809	13.9089	30.2220
155	155	1	4	4.4064	70.3291	33.4496
156	156	1	4	1.2543	53.7230	88.2461
157	157	1	4	64.1406	21.8643	51.3678
158	158	1	4	53.2801	29.3186	80.2428
159	159	1	4	27.0192	57.0214	62.1044
160	160	1	4	13.3284	47.6626	92.2573
161	161	1	4	65.6065	68.8021	32.3361
162	162	1	4	7.6233	2.3726	41.2610
163	163	1	4	30.4502	60.0127	83.5508
164	164	1	4	27.7910	48.8412	79.4104
165	165	1	4	31.7204	72.7126	67.0077
166	166	1	4	21.6481	67.4196	37.3504
167	167	1	4	67.7701	27.2211	54.9214
168	168	1	4	86.3513	7.4942	20.1130
169	169	1	4	30.0589	30.0585	86.8756
170	170	1	4	44.0610	5.2250	13.3981
171	171	1	4	13.5686	42.3162	49.8087
172	172	1	4	42.9712	85.7634	24.7770
173	173	1	4	35.5975	90.4970	91.4507
174	174	1	4	59.7679	57.2536	81.0885
175	175	1	4	45.9695	25.8347	1.6814
176	176	1	4	18.0849	44.8773	76.7034
177	177	1	4	13.3188	7.4788	50.8260
178	178	1	4	49.5827	58.4539	27.9341
179	179	1	4	21.7891	29.2871	37.2995
180	180	1	4	73.4994	40.5275	74.0553
181	181	1	4	1.4870	37.1879	16.7581
182	182	1	4	11.0907	63.0827	18.5142
183	183	1	4	25.6212	12.9904	18.7084
184	184	1	4	91.8232	43.4985	32.2383
185	185	1	4	72.5215	10.2945	54.9182
186	186	1	4	63.6043	10.9105	85.9594
187	187	1	4	55.8788	17.3184	79.2404
188	188	1	4	63.2348	67.2017	60.0112
189	189	1	4	4.6949	10.3792	51.7610
190	190	1	4	40.6960	10.8645	75.2662
191	191	1	4	14.4744	5.4863	38.4615
192	192	1	4	59.8124	29.9358	65.9663
193	193	1	4	16.7348	37.0441	63.0656
194	194	1	4	30.5788	91.2317	57.5493
195	195	1	4	44.9341	32.9494	39.0421
196	196	1	4	3.4946	80.4412	26.6006
197	197	1	4	60.7952	23.1025	26.0376
198	198	1	4	70.6839	52.2413	22.9361
199	199	1	4	53.7933	34.9942	45.1282
200	200	1	4	8.8070	73.8897	66.9169
201	201	1	4	7.3098	53.1162	45.9663
202	202	1	4	3.9097	87.6590	71.3397
203	203	1	4	35.4268	2.9160	85.0084
204	204	1	4	39.2966	41.8886	20.2713
205	205	1	4	58.1138	21.4701	42.6975
206	206	1	4	75.4469	87.7435	66.8353
207	207	1	4	54.0994	36.7420	53.2375
208	208	1	4	61.0223	37.5314	17.1480
209	209	1	4	75.1487	49.4638	43.8252
210	210	1	4	5.9495	69.5277	1.2014
211	211	1	4	67.4588	67.7357	45.5194
212	212	1	4	1.9431	71.5505	9.3496
213	213	1	4	61.1999	19.9608	34.4841
214	214	1	4	75.8880	56.7323	69.8999
215	215	1	4	51.6222	14.2296	63.2382
216	216	1	4	6.3386	51.1882	5.0915
217	217	1	4	54.0487	45.1994	20.1396
218	218	1	4	66.5728	23.4966	58.9013
219	219	1	4	23.7250	86.2114	53.1772
220	220	1	4	38.7018	40.8079	33.7566
221	221	1	4	22.5513	29.5228	62.6502
222	222	1	4	69.7793	56.4174	84.9794
223	223	1	4	74.5340	81.2585	64.8806
224	224	1	4	27.1172	62.0322	30.0407
225	225	1	4	48.9575	51.9685	6.8516
226	226	1	4	48.6348	80.8873	60.3566
227	227	1	4	4.7652	65.8163	3.9925
228	228	1	4	31.6682	74.5236	80.2110
229	229	1	4	48.4133	75.7641	49.4720
230	230	1	4	47.5026	35.3418	67.1097
231	231	1	4	0.8937	0.4894	43.4577
232	232	1	4	78.3308	45.7924	83.6419
233	233	1	4	56.7581	18.8448	0.9657
234	234	1	4	5.7695	82.0257	78.8845
235	235	1	4	59.5753	67.9578	27.4004
236	236	1	4	88.7705	80.4178	24.9712
237	237	1	4	8.4600	4.6889	45.8523
238	238	1	4	36.4473	23.5086	26.6397
239	239	1	4	67.6329	25.0413	26.1560
240	240	1	4	68.0177	23.1924	51.6221
241	241	1	4	60.5252	32.9884	22.3252
242	242	1	4	62.2223	62.5087	18.2836
243	243	1	4	87.7049	91.6343	62.1260
244	244	1	4	18.4584	87.0983	26.5725
245	245	1	4	8.3898	53.9771	4.7024
246	246	1	4	53.4568	37.7388	91.6405
247	247	1	4	16.9019	40.3356	64.3037
248	248	1	4	21.2136	50.4383	45.1238
249	249	1	4	5.7911	68.3001	54.5767
250	250	1	4	26.2357	65.3835	29.0789
251	251	1	4	70.1604	41.7989	20.8629
252	252	1	4	16.5491	33.4610	41.4002
253	253	1	4	15.9902	44.5378	35.2170
254	254	1	4	83.7793	87.1911	62.7458
255	255	1	4	86.0323	70.3112	53.8669
256	256	1	4	76.4867	82.6990	62.9535
257	257	1	4	26.1438	47.9146	71.6040
258	258	1	4	66.2524	31.3016	10.5151
259	259	1	4	39.8131	16.8544	34.7302
260	260	1	4	50.1923	71.2607	12.8776
261	261	1	4	45.2108	65.8977	27.8071
262	262	1	4	21.1612	64.6765	55.5395
263	263	1	4	59.7008	39.4536	56.2762
264	264	1	4	47.7089	25.4506	0.0321
265	265	1	4	36.9246	18.6408	53.6935
266	266	1	4	48.9378	85.2541	25.7404
267	267	1	4	75.4500	33.3729	44.4904
268	268	1	4	24.2946	24.2985	12.8880
269	269	1	4	65.8590	32.0732	46.0006
270	270	1	4	66.8232	91.9276	57.8462
271	271	1	4	80.6303	72.5392	12.6892
272	272	1	4	30.4921	83.6176	60.8031
273	273	1	4	51.7537	87.4315	0.7583
274	274	1	4	12.0922	88.6288	48.5013
275	275	1	4	13.4513	10.1148	72.6603
276	276	1	4	77.7720	2.3805	41.7441
277	277	1	4	22.8880	82.3994	41.3129
278	278	1	4	31.2025	16.9474	81.0967
279	279	1	4	0.0666	10.4506	75.7509
280	280	1	4	51.8474	6.0645	45.6174
281	281	1	4	47.0333	11.7263	88.3716
282	282	1	4	51.2363	25.3121	4.6803
283	283	1	4	71.5937	6.6079	19.5387
284	284	1	4	84.6659	46.3241	24.8202
285	285	1	4	24.0669	79.9309	14.1946
286	286	1	4	69.9450	51.3587	49.4764
287	287	1	4	25.9819	33.1786	7.7142
288	288	1	4	80.0068	55.1716	1.9551
289	289	1	4	2.9618	18.9613	34.7434
290	290	1	4	88.1507	37.3334	32.3299
291	291	1	4	10.7891	17.8171	9.8723
292	292	1	4	52.5462	37.1621	36.3025
293	293	1	4	13.3919	31.2157	73.1293
294	294	1	4	56.9167	55.8505	48.3102
295	295	1	4	21.9526	86.1409	24.4010
296	296	1	4	38.8037	62.2001	21.2773
297	297	1	4	3.0353	50.3949	2.6912
298	298	1	4	6.3265	26.2570	68.0261
299	299	1	4	45.7952	71.8974	49.7347
300	300	1	4	44.1975	45.1401	15.6691
301	301	1	4	63.6411	11.7372	39.7453
302	302	1	4	82.6769	31.2509	69.0204
303	303	1	4	31.4199	91.0087	26.1640
304	304	1	4	71.4691	66.0177	8.1229
305	305	1	4	81.4756	87.6587	65.6843
306	306	1	4	80.1673	69.7040	30.5065
307	307	1	4	73.1550	68.7655	64.4952
308	308	1	4	17.3663	63.2689	82.4166
309	309	1	4	6.6269	33.0118	38.9049
310	310	1	4	91.6783	49.1856	38.2087
311	311	1	4	14.8668	70.1995	55.6438
312	312	1	4	51.8347	1.4994	42.3880
313	313	1	4	88.9577	17.6435	20.9226
314	314	1	4	53.4664	48.3849	23.3007
315	315	1	4	47.3450	53.4534	56.2784
316	316	1	4	23.8184	14.8628	68.8410
317	317	1	4	23.5071	1.5214	79.5650
318	318	1	4	56.7184	45.6091	9.1819
319	319	1	4	47.3594	48.4479	47.0272
320	320	1	4	41.8690	84.4872	35.8862
321	321	1	4	73.0032	30.5995	54.7242
322	322	1	4	37.6964	82.9077	75.0412
323	323	1	4	51.6125	70.8065	78.3217
324	324	1	4	49.0044	56.0211	8.2932
325	325	1	4	28.9233	3.0373	19.4627
326	326	1	4	36.4116	47.1087	55.8669
327	327	1	4	13.4284	8.7490	91.8038
328	328	1	4	6.8882	19.4817	60.6477
329	329	1	4	24.7696	63.3853	43.1125
330	330	1	4	3.8467	46.8923	60.8332
331	331	1	4	84.5868	79.2441	44.2012
332	332	1	4	12.6667	47.7343	92.2247
333	333	1	4	80.1694	21.1697	75.7533
334	334	1	4	44.5754	70.1504	7.1363
335	335	1	4	40.6886	74.0992	55.6933
336	336	1	4	73.5604	4.0717	48.8675
337	337	1	4	56.8753	41.5491	11.5158
338	338	1	4	43.8492	33.3405	29.2519
339	339	1	4	72.6986	3.7532	78.7329
340	340	1	4	56.7411	13.7740	59.1747
341	341	1	4	68.1818	37.5549	24.2133
342	342	1	4	9.4484	50.0846	43.9943
343	343	1	4	75.4288	67.4558	12.4168
344	344	1	4	48.7207	80.8412	26.0293
345	345	1	4	71.3262	48.1545	75.1630
346	346	1	4	47.6049	35.7992	64.0594
347	347	1	4	33.5037	5.1625	33.3452
348	348	1	4	24.8226	56.3886	20.5785
349	349	1	4	36.9915	92.6565	7.9049
350	350	1	4	92.0925	20.0845	22.7675
351	351	1	4	68.5584	27.6928	12.5771
352	352	1	4	24.5403	91.7568	27.3625
353	353	1	4	38.7360	87.3710	70.0869
354	354	1	4	42.5539	4.8547	44.1421
355	355	1	4	67.2528	91.2828	14.5135
356	356	1	4	18.4270	24.1156	79.3291
357	357	1	4	20.7691	52.4306	47.9833
358	358	1	4	87.8684	91.9911	30.7233
359	359	1	4	28.2771	77.6259	1.2681
360	360	1	4	27.2721	40.3625	38.9835
361	361	1	4	85.8828	90.5883	43.6246
362	362	1	4	72.4616	67.7162	76.4391
363	363	1	4	19.1305	19.1715	38.9255
364	364	1	4	2.6208	39.3053	35.4103
365	365	1	4	41.9337	25.8038	38.3878
366	366	1	4	28.9985	76.9845	11.8028
367	367	1	4	81.2787	92.7089	27.6691
368	368	1	4	69.0820	23.1124	64.9591
369	369	1	4	59.3525	55.8270	60.7850
370	370	1	4	16.4123	19.1356	66.7706
371	371	1	4	48.5052	68.5435	9.2156
372	372	1	4	5.5720	17.6019	25.8308
373	373	1	4	59.9964	67.8908	37.8758
374	374	1	4	87.0788	84.8101	89.6295
375	375	1	4	59.7145	58.6839	48.8087
376	376	1	4	89.8180	7.8800	71.1350
377	377	1	4	51.9048	48.1014	36.4553
378	378	1	4	6.2247	57.2879	88.8003
379	379	1	4	72.8376	58.6536	57.8876
380	380	1	4	55.7293	3.0429	72.1359
381	381	1	4	78.6310	35.1167	76.9214
382	382	1	4	61.0878	3.7906	56.8163
383	383	1	4	55.6176	82.9583	73.0713
384	384	1	4	52.5765	65.0983	76.7737
385	385	1	4	62.6868	88.7576	61.3087
386	386	1	4	11.1021	35.9541	28.4088
387	387	1	4	24.9860	29.5688	48.0201
388	388	1	4	90.8166	67.5109	80.7594
389	389	1	4	75.0869	50.4955	17.9163
390	390	1	4	7.3581	71.4662	72.8409
391	391	1	4	20.5585	86.3462	91.5351
392	392	1	4	86.5773	68.1408	79.9901
393	393	1	4	58.8940	54.1018	7.5565
394	394	1	4	46.7583	87.3253	33.2918
395	395	1	4	58.2913	42.0487	85.0129
396	396	1	4	54.0884	79.1595	25.9428
397	397	1	4	4.4851	75.7642	9.7449
398	398	1	4	16.4797	11.7866	45.8884
399	399	1	4	48.1869	58.6602	15.6647
400	400	1	4	12.9610	53.3481	33.8046
401	401	1	4	65.6657	25.2149	91.1210
402	402	1	4	39.5185	23.5627	36.4078
403	403	1	4	68.0928	58.8700	32.0634
404	404	1	4	67.4013	3.0336	58.4109
405	405	1	4	24.2271	11.4088	32.6263
406	406	1	4	49.7775	12.4990	55.2272
407	407	1	4	6.8631	52.8608	85.4526
408	408	1	4	53.8870	65.4623	89.8556
409	409	1	4	26.1516	6.9067	91.3259
410	410	1	4	65.1148	79.7418	61.6906
411	411	1	4	12.6769	82.1562	45.1625
412	412	1	4	66.7535	35.0452	38.0917
413	413	1	4	70.5674	20.0399	87.7539
414	414	1	4	10.3393	82.1772	74.9246
415	415	1	4	78.8242	88.0621	13.4473
416	416	1	4	90.5519	1.9797	41.2854
417	417	1	4	20.3090	55.3011	28.7449
418	418	1	4	25.7394	40.6818	84.0599
419	419	1	4	84.4289	11.5113	17.4456
420	420	1	4	43.2384	23.9142	70.5860
421	421	1	4	41.4538	26.2405	86.6519
422	422	1	4	3.0797	77.8211	31.0970
423	423	1	4	84.2444	57.4492	30.4056
424	424	1	4	89.9665	27.2744	2.7336
425	425	1	4	65.4645	29.1222	41.4606
426	426	1	4	76.9105	19.3245	19.9388
427	427	1	4	17.9830	25.2154	25.6053
428	428	1	4	69.1431	61.2852	81.2905
429	429	1	4	77.7601	42.2243	45.8726
430	430	1	4	18.4837	63.0548	70.2191
431	431	1	4	37.4251	58.8601	90.2788
432	432	1	4	41.1576	68.1543	27.7353
433	433	1	4	25.7601	40.5090	29.7719
434	434	1	4	65.9097	44.7660	64.7847
435	435	1	4	50.3831	65.1914	58.1055
436	436	1	4	43.9073	78.3763	37.3551
437	437	1	4	78.4788	33.0536	28.6671
438	438	1	4	35.7877	68.0932	63.1544
439	439	1	4	66.0878	30.8764	1.3113
440	440	1	4	68.1975	78.5128	33.8151
441	441	1	4	37.0226	11.7678	48.6487
442	442	1	4	14.4078	51.4435	18.5008
443	443	1	4	65.4322	26.4878	51.2599
444	444	1	4	53.9508	54.3303	87.5828
445	445	1	4	79.4651	53.5546	15.0796
446	446	1	4	24.7715	25.5766	53.0402
447	447	1	4	58.7633	60.7996	23.7324
448	448	1	4	16.6311	54.5473	26.0153